TITLE = "DSMC"
VARIABLES = "ID" "X" "ρ" "v1" "Ttrans" "p" "p1" "q1" "mv1v1v1" "mvvv1v1"
ZONE T="Ma=9.0", I=800, J=1, K=1, F=POINT
1 -0.04995 8.83417e-05 2770.36 273.122 5.0245 5.02334 -1.19909 -1.96674 1438080.0
2 -0.04985 8.83417e-05 2770.36 273.119 5.02443 5.02334 -1.21681 -1.91014 1437980.0
3 -0.04975 8.83413e-05 2770.36 273.123 5.02449 5.02339 -1.21918 -1.96244 1438220.0
4 -0.04965 8.83419e-05 2770.36 273.121 5.0245 5.02336 -1.31177 -2.02697 1438490.0
5 -0.04955 8.83417e-05 2770.36 273.122 5.02449 5.02342 -1.3337 -2.06804 1438970.0
6 -0.04945 8.83425e-05 2770.36 273.124 5.02458 5.02352 -1.49955 -2.35124 1440030.0
7 -0.04935 8.83415e-05 2770.36 273.126 5.02455 5.0236 -1.59901 -2.50096 1440520.0
8 -0.04925 8.83415e-05 2770.36 273.128 5.02459 5.02353 -1.60248 -2.49187 1440720.0
9 -0.04915 8.83426e-05 2770.36 273.13 5.02469 5.02378 -1.73683 -2.68296 1441710.0
10 -0.04905 8.83415e-05 2770.36 273.128 5.02459 5.0236 -1.82447 -2.8265 1442230.0
11 -0.04895 8.83417e-05 2770.36 273.13 5.02463 5.02372 -1.96302 -2.96915 1442990.0
12 -0.04885 8.83419e-05 2770.36 273.132 5.0247 5.02368 -1.82771 -2.80692 1442530.0
13 -0.04875 8.83416e-05 2770.36 273.127 5.02459 5.0237 -1.92633 -2.99775 1443120.0
14 -0.04865 8.83417e-05 2770.36 273.131 5.02466 5.02378 -1.83284 -2.85688 1442630.0
15 -0.04855 8.83408e-05 2770.36 273.13 5.02459 5.02369 -1.9159 -3.05402 1443340.0
16 -0.04845 8.83427e-05 2770.36 273.132 5.02473 5.02392 -1.93501 -3.08579 1443520.0
17 -0.04835 8.8341e-05 2770.36 273.128 5.02457 5.02377 -2.01501 -3.19392 1444230.0
18 -0.04825 8.83417e-05 2770.36 273.133 5.02469 5.02381 -1.96325 -3.09128 1443540.0
19 -0.04815 8.83427e-05 2770.36 273.132 5.02474 5.02401 -2.07337 -3.30263 1444740.0
20 -0.04805 8.83407e-05 2770.36 273.135 5.02468 5.02384 -2.08003 -3.30437 1444620.0
21 -0.04795 8.83422e-05 2770.36 273.134 5.02475 5.02404 -2.27823 -3.55586 1445920.0
22 -0.04785 8.83421e-05 2770.36 273.136 5.02477 5.02406 -2.49732 -3.75959 1447110.0
23 -0.04775 8.83409e-05 2770.36 273.14 5.02477 5.02402 -2.53433 -3.85912 1447820.0
24 -0.04765 8.83422e-05 2770.36 273.143 5.0249 5.0242 -2.67233 -3.96113 1448390.0
25 -0.04755 8.83424e-05 2770.36 273.137 5.0248 5.02406 -2.59341 -3.93495 1448340.0
26 -0.04745 8.83415e-05 2770.36 273.141 5.02483 5.02414 -2.60288 -3.94178 1448410.0
27 -0.04735 8.83422e-05 2770.36 273.141 5.02486 5.02424 -2.81967 -4.26624 1450010.0
28 -0.04725 8.83421e-05 2770.36 273.143 5.0249 5.02429 -2.79157 -4.266 1450140.0
29 -0.04715 8.83412e-05 2770.36 273.142 5.02483 5.02424 -2.79553 -4.23455 1449940.0
30 -0.04705 8.83418e-05 2770.36 273.143 5.02487 5.02428 -2.98252 -4.51642 1451340.0
31 -0.04695 8.83417e-05 2770.36 273.147 5.02496 5.02438 -3.10895 -4.67069 1452250.0
32 -0.04685 8.83413e-05 2770.36 273.146 5.0249 5.02431 -3.17335 -4.75874 1452770.0
33 -0.04675 8.83416e-05 2770.36 273.146 5.02492 5.02442 -3.16706 -4.8147 1453230.0
34 -0.04665 8.8343e-05 2770.36 273.151 5.0251 5.02461 -3.39163 -5.11425 1454710.0
35 -0.04655 8.83418e-05 2770.36 273.151 5.02504 5.0246 -3.59456 -5.36011 1456050.0
36 -0.04645 8.83411e-05 2770.35 273.151 5.02499 5.02448 -3.42819 -5.18028 1455320.0
37 -0.04635 8.83414e-05 2770.35 273.15 5.02498 5.02452 -3.4001 -5.14886 1455330.0
38 -0.04625 8.83422e-05 2770.36 273.149 5.02502 5.02452 -3.53006 -5.33832 1456170.0
39 -0.04615 8.83426e-05 2770.36 273.153 5.02511 5.02477 -3.64056 -5.533 1457190.0
40 -0.04605 8.83406e-05 2770.35 273.154 5.02502 5.02467 -3.85267 -5.7751 1458540.0
41 -0.04595 8.83423e-05 2770.36 273.156 5.02515 5.02478 -3.84574 -5.83384 1458930.0
42 -0.04585 8.83419e-05 2770.35 273.158 5.02516 5.02478 -3.95456 -5.88696 1459560.0
43 -0.04575 8.83421e-05 2770.36 273.155 5.02512 5.02483 -3.98948 -5.97192 1460040.0
44 -0.04565 8.83421e-05 2770.35 273.159 5.0252 5.0249 -4.22645 -6.32509 1461470.0
45 -0.04555 8.83414e-05 2770.35 273.164 5.02526 5.02505 -4.32502 -6.45218 1462330.0
46 -0.04545 8.83414e-05 2770.35 273.161 5.02519 5.02488 -4.36825 -6.47735 1462720.0
47 -0.04535 8.83431e-05 2770.36 273.165 5.02537 5.0252 -4.57126 -6.67204 1464010.0
48 -0.04525 8.83417e-05 2770.35 273.166 5.0253 5.02516 -4.77338 -7.04696 1465560.0
49 -0.04515 8.83417e-05 2770.35 273.167 5.02533 5.0252 -4.63198 -6.89959 1465070.0
50 -0.04505 8.83422e-05 2770.36 273.169 5.02538 5.02526 -5.03635 -7.41391 1467430.0
51 -0.04495 8.83412e-05 2770.35 273.173 5.0254 5.02533 -5.06749 -7.53829 1468240.0
52 -0.04485 8.8342e-05 2770.35 273.171 5.0254 5.02539 -5.15042 -7.57005 1468710.0
53 -0.04475 8.83426e-05 2770.35 273.172 5.02546 5.02549 -5.09693 -7.6153 1468810.0
54 -0.04465 8.83413e-05 2770.35 273.174 5.02543 5.02547 -5.27008 -7.86411 1469540.0
55 -0.04455 8.83423e-05 2770.35 273.177 5.02555 5.02564 -5.4797 -8.18641 1471890.0
56 -0.04445 8.83422e-05 2770.35 273.177 5.02554 5.02567 -5.63141 -8.36346 1472840.0
57 -0.04435 8.83419e-05 2770.35 273.179 5.02555 5.02576 -5.82671 -8.61101 1474440.0
58 -0.04425 8.83418e-05 2770.35 273.185 5.02565 5.02592 -5.90008 -8.68089 1474800.0
59 -0.04415 8.83418e-05 2770.35 273.184 5.02563 5.02583 -6.05752 -8.97745 1476000.0
60 -0.04405 8.83428e-05 2770.35 273.184 5.0257 5.026 -6.07415 -9.02523 1477010.0
61 -0.04395 8.83414e-05 2770.35 273.187 5.02567 5.02593 -6.26077 -9.3103 1478260.0
62 -0.04385 8.83418e-05 2770.35 273.189 5.02573 5.02609 -6.50385 -9.63116 1479830.0
63 -0.04375 8.83425e-05 2770.35 273.191 5.0258 5.02618 -6.51581 -9.74226 1480590.0
64 -0.04365 8.83417e-05 2770.35 273.192 5.02578 5.02619 -6.64829 -9.94911 1481510.0
65 -0.04355 8.83422e-05 2770.35 273.197 5.02589 5.02636 -7.05083 -10.5442 1484440.0
66 -0.04345 8.83417e-05 2770.35 273.198 5.02589 5.02644 -7.07872 -10.5099 1484600.0
67 -0.04335 8.83419e-05 2770.35 273.201 5.02596 5.0265 -7.47856 -11.0841 1487710.0
68 -0.04325 8.83424e-05 2770.35 273.207 5.0261 5.02676 -7.76372 -11.433 1489570.0
69 -0.04315 8.83418e-05 2770.34 273.206 5.02604 5.02666 -7.93197 -11.6236 1490890.0
70 -0.04305 8.83422e-05 2770.35 273.213 5.0262 5.02691 -8.05131 -11.8823 1492380.0
71 -0.04295 8.83417e-05 2770.35 273.211 5.02613 5.02685 -8.29349 -12.2605 1494120.0
72 -0.04285 8.83418e-05 2770.35 273.215 5.02621 5.02702 -8.39381 -12.4513 1495320.0
73 -0.04275 8.83425e-05 2770.35 273.217 5.02629 5.02714 -8.62867 -12.7438 1497170.0
74 -0.04265 8.83429e-05 2770.35 273.221 5.02637 5.02724 -8.8065 -12.9906 1499160.0
75 -0.04255 8.83411e-05 2770.35 273.221 5.02628 5.0272 -8.91336 -13.2109 1499520.0
76 -0.04245 8.83416e-05 2770.35 273.227 5.02642 5.02745 -9.34913 -13.7299 1502790.0
77 -0.04235 8.8342e-05 2770.34 273.229 5.02648 5.02751 -9.46581 -14.0572 1504280.0
78 -0.04225 8.83428e-05 2770.35 273.231 5.02656 5.02769 -9.68925 -14.2974 1506060.0
79 -0.04215 8.83419e-05 2770.34 273.24 5.02667 5.0278 -10.3471 -15.0514 1510630.0
80 -0.04205 8.83418e-05 2770.34 273.243 5.02672 5.02793 -10.4191 -15.1839 1511440.0
81 -0.04195 8.83428e-05 2770.34 273.245 5.02681 5.02799 -10.7698 -15.7274 1514600.0
82 -0.04185 8.83429e-05 2770.34 273.247 5.02685 5.02808 -10.927 -15.9944 1515790.0
83 -0.04175 8.83412e-05 2770.34 273.246 5.02674 5.02795 -10.8753 -15.8633 1515950.0
84 -0.04165 8.83422e-05 2770.34 273.252 5.02691 5.02822 -11.243 -16.5021 1519200.0
85 -0.04155 8.83425e-05 2770.34 273.256 5.027 5.02835 -11.5692 -16.8627 1521130.0
86 -0.04145 8.83421e-05 2770.34 273.257 5.02699 5.0283 -11.4996 -16.9897 1521720.0
87 -0.04135 8.83425e-05 2770.34 273.261 5.02709 5.0286 -11.9271 -17.6228 1525090.0
88 -0.04125 8.83427e-05 2770.34 273.265 5.02718 5.02871 -12.2643 -17.9944 1527060.0
89 -0.04115 8.83414e-05 2770.34 273.267 5.02714 5.02867 -12.4819 -18.438 1529130.0
90 -0.04105 8.83429e-05 2770.34 273.278 5.02742 5.02919 -12.8809 -19.1903 1532850.0
91 -0.04095 8.83419e-05 2770.34 273.277 5.02735 5.02906 -13.2519 -19.5702 1534780.0
92 -0.04085 8.8343e-05 2770.34 273.286 5.02759 5.02944 -13.6158 -20.1063 1537760.0
93 -0.04075 8.83425e-05 2770.34 273.285 5.02754 5.02937 -13.9887 -20.5129 1540720.0
94 -0.04065 8.83421e-05 2770.34 273.29 5.0276 5.02938 -13.8889 -20.5134 1541390.0
95 -0.04055 8.83432e-05 2770.33 273.292 5.02771 5.02962 -14.2821 -21.0672 1543780.0
96 -0.04045 8.83423e-05 2770.34 273.301 5.02782 5.0299 -14.9439 -21.9703 1549110.0
97 -0.04035 8.83422e-05 2770.33 273.306 5.02791 5.02998 -15.2732 -22.4796 1551630.0
98 -0.04025 8.83429e-05 2770.34 273.306 5.02795 5.03005 -15.2916 -22.5942 1552120.0
99 -0.04015 8.83425e-05 2770.33 273.311 5.02801 5.03019 -15.7942 -23.4958 1556560.0
100 -0.04005 8.83427e-05 2770.34 273.323 5.02824 5.03058 -16.4375 -24.2214 1560480.0
101 -0.03995 8.83421e-05 2770.33 273.319 5.02814 5.03047 -16.4869 -24.4372 1561660.0
102 -0.03985 8.83429e-05 2770.33 273.331 5.02841 5.03087 -17.1002 -25.1736 1566380.0
103 -0.03975 8.83432e-05 2770.33 273.335 5.02849 5.03087 -17.3558 -25.556 1568320.0
104 -0.03965 8.83428e-05 2770.33 273.335 5.02848 5.03095 -17.6146 -25.9799 1571490.0
105 -0.03955 8.83428e-05 2770.33 273.345 5.02866 5.03127 -18.3086 -26.8096 1576240.0
106 -0.03945 8.83422e-05 2770.33 273.354 5.02879 5.03145 -18.7455 -27.421 1579850.0
107 -0.03935 8.8343e-05 2770.33 273.358 5.0289 5.0317 -19.3134 -28.172 1583340.0
108 -0.03925 8.83425e-05 2770.33 273.367 5.02904 5.03197 -19.8006 -29.2192 1588710.0
109 -0.03915 8.83432e-05 2770.33 273.37 5.02915 5.03216 -20.1562 -29.5936 1590350.0
110 -0.03905 8.83427e-05 2770.32 273.379 5.02927 5.03236 -20.6439 -30.2848 1595080.0
111 -0.03895 8.83433e-05 2770.32 273.389 5.02949 5.03273 -21.5799 -31.4458 1602290.0
112 -0.03885 8.83439e-05 2770.32 273.389 5.02953 5.03276 -21.5722 -31.6224 1602580.0
113 -0.03875 8.83422e-05 2770.32 273.393 5.02951 5.03297 -21.9026 -32.3268 1605450.0
114 -0.03865 8.83421e-05 2770.32 273.401 5.02965 5.03326 -22.3012 -33.2711 1609840.0
115 -0.03855 8.83432e-05 2770.32 273.412 5.02992 5.03361 -23.3424 -34.3525 1616510.0
116 -0.03845 8.83432e-05 2770.32 273.423 5.03011 5.0339 -24.0695 -35.3077 1622490.0
117 -0.03835 8.83427e-05 2770.32 273.43 5.03021 5.03397 -24.5264 -35.8804 1626290.0
118 -0.03825 8.83436e-05 2770.32 273.44 5.03045 5.03447 -25.3923 -37.1053 1632290.0
119 -0.03815 8.8343e-05 2770.32 273.446 5.03052 5.03465 -25.9843 -38.1548 1637800.0
120 -0.03805 8.83434e-05 2770.32 273.458 5.03076 5.03492 -26.661 -39.0062 1643410.0
121 -0.03795 8.83427e-05 2770.31 273.464 5.03085 5.03516 -27.2929 -39.9917 1648160.0
122 -0.03785 8.8344e-05 2770.31 273.482 5.03125 5.03581 -28.512 -41.5922 1656390.0
123 -0.03775 8.83424e-05 2770.31 273.486 5.03123 5.03579 -29.083 -42.3582 1662150.0
124 -0.03765 8.83436e-05 2770.31 273.5 5.03156 5.03631 -29.827 -43.1596 1667430.0
125 -0.03755 8.83431e-05 2770.31 273.503 5.03158 5.03643 -30.3333 -44.4901 1672900.0
126 -0.03745 8.83433e-05 2770.31 273.513 5.03178 5.03685 -30.9024 -45.4067 1678370.0
127 -0.03735 8.83437e-05 2770.31 273.521 5.03195 5.03709 -31.4826 -46.2867 1682480.0
128 -0.03725 8.83432e-05 2770.31 273.531 5.0321 5.03743 -32.4671 -47.5579 1690090.0
129 -0.03715 8.83435e-05 2770.3 273.551 5.03249 5.03803 -33.6481 -49.2766 1699500.0
130 -0.03705 8.83431e-05 2770.3 273.549 5.03243 5.03805 -33.8021 -49.7191 1701640.0
131 -0.03695 8.8345e-05 2770.3 273.571 5.03293 5.03871 -35.2528 -51.8386 1712880.0
132 -0.03685 8.83433e-05 2770.3 273.58 5.03301 5.039 -35.9258 -52.7931 1718250.0
133 -0.03675 8.8344e-05 2770.3 273.586 5.03316 5.03927 -36.3713 -53.6978 1723440.0
134 -0.03665 8.83437e-05 2770.3 273.601 5.03342 5.03977 -37.5748 -55.4184 1731170.0
135 -0.03655 8.8344e-05 2770.29 273.607 5.03355 5.04008 -38.111 -56.4055 1737620.0
136 -0.03645 8.83439e-05 2770.29 273.621 5.0338 5.04033 -39.0758 -57.5889 1744720.0
137 -0.03635 8.83441e-05 2770.29 273.636 5.03408 5.04089 -40.2941 -59.2403 1754630.0
138 -0.03625 8.83447e-05 2770.29 273.648 5.03434 5.04121 -41.0662 -60.3142 1760680.0
139 -0.03615 8.83437e-05 2770.29 273.669 5.03467 5.04197 -42.6622 -62.8315 1773020.0
140 -0.03605 8.83443e-05 2770.29 273.683 5.03496 5.04237 -43.8207 -64.2728 1781880.0
141 -0.03595 8.83444e-05 2770.28 273.702 5.03532 5.04307 -45.3052 -66.4195 1792120.0
142 -0.03585 8.83449e-05 2770.28 273.722 5.0357 5.04363 -46.6937 -68.6281 1805200.0
143 -0.03575 8.83445e-05 2770.28 273.731 5.03586 5.04392 -47.4405 -69.533 1810240.0
144 -0.03565 8.83447e-05 2770.28 273.746 5.03615 5.04445 -48.5871 -71.4884 1820220.0
145 -0.03555 8.83438e-05 2770.27 273.76 5.03635 5.04485 -49.6269 -73.2345 1829460.0
146 -0.03545 8.83445e-05 2770.27 273.778 5.03672 5.04534 -50.9251 -74.9537 1838670.0
147 -0.03535 8.83449e-05 2770.27 273.792 5.03701 5.04587 -51.9084 -76.4569 1847320.0
148 -0.03525 8.83446e-05 2770.27 273.809 5.03729 5.04635 -53.3121 -78.6109 1858940.0
149 -0.03515 8.83452e-05 2770.27 273.822 5.03758 5.04695 -54.3752 -80.2164 1868290.0
150 -0.03505 8.8344e-05 2770.26 273.847 5.03796 5.04747 -56.1827 -82.66 1881680.0
151 -0.03495 8.83451e-05 2770.26 273.858 5.03823 5.04809 -57.1127 -84.0506 1889080.0
152 -0.03485 8.83448e-05 2770.26 273.881 5.03864 5.04865 -58.6369 -86.4345 1901630.0
153 -0.03475 8.83453e-05 2770.26 273.899 5.039 5.04926 -60.1139 -88.4577 1913230.0
154 -0.03465 8.83448e-05 2770.25 273.921 5.03937 5.05002 -61.887 -91.209 1927530.0
155 -0.03455 8.8345e-05 2770.25 273.938 5.03969 5.05062 -63.155 -93.2239 1938790.0
156 -0.03445 8.83456e-05 2770.25 273.961 5.04015 5.05126 -64.6455 -95.3176 1949660.0
157 -0.03435 8.83451e-05 2770.24 273.987 5.04059 5.05211 -66.6261 -98.1685 1965210.0
158 -0.03425 8.83447e-05 2770.24 274.009 5.04098 5.05289 -68.5968 -101.213 1981520.0
159 -0.03415 8.83462e-05 2770.24 274.027 5.0414 5.05357 -69.7867 -103.274 1991460.0
160 -0.03405 8.8346e-05 2770.23 274.055 5.0419 5.05439 -71.7774 -106.18 2007760.0
161 -0.03395 8.83457e-05 2770.23 274.076 5.04227 5.05501 -73.6845 -108.793 2023270.0
162 -0.03385 8.83457e-05 2770.23 274.107 5.04283 5.05595 -75.8675 -111.805 2040780.0
163 -0.03375 8.83457e-05 2770.22 274.138 5.04341 5.05706 -78.2526 -115.32 2057060.0
164 -0.03365 8.83464e-05 2770.22 274.165 5.04396 5.05798 -80.1704 -118.215 2073740.0
165 -0.03355 8.83462e-05 2770.22 274.187 5.04435 5.05862 -82.005 -120.934 2088330.0
166 -0.03345 8.83457e-05 2770.22 274.212 5.04477 5.05936 -83.5338 -123.261 2102340.0
167 -0.03335 8.83464e-05 2770.21 274.232 5.04518 5.06017 -85.6436 -126.507 2119770.0
168 -0.03325 8.83476e-05 2770.21 274.259 5.04575 5.06091 -87.1616 -128.473 2132960.0
169 -0.03315 8.83465e-05 2770.2 274.285 5.04616 5.06163 -89.3644 -132.113 2152330.0
170 -0.03305 8.83465e-05 2770.2 274.318 5.04678 5.06277 -91.8011 -135.436 2169640.0
171 -0.03295 8.83468e-05 2770.19 274.346 5.04731 5.06363 -94.1577 -139.005 2190250.0
172 -0.03285 8.83463e-05 2770.19 274.376 5.04783 5.06453 -96.0721 -141.821 2205600.0
173 -0.03275 8.83471e-05 2770.19 274.413 5.04856 5.06591 -99.1535 -146.44 2229070.0
174 -0.03265 8.83474e-05 2770.18 274.449 5.04924 5.06706 -101.613 -150.044 2248180.0
175 -0.03255 8.83474e-05 2770.18 274.492 5.05002 5.06837 -105.023 -154.791 2275440.0
176 -0.03245 8.8348e-05 2770.17 274.52 5.05057 5.06937 -107.078 -158.049 2291750.0
177 -0.03235 8.83476e-05 2770.17 274.554 5.05117 5.07044 -109.501 -161.666 2312510.0
178 -0.03225 8.83478e-05 2770.16 274.594 5.05192 5.07169 -112.812 -165.961 2335970.0
179 -0.03215 8.83478e-05 2770.16 274.637 5.05271 5.07303 -115.716 -170.524 2361260.0
180 -0.03205 8.83477e-05 2770.15 274.675 5.0534 5.0743 -119.008 -175.508 2387770.0
181 -0.03195 8.83486e-05 2770.15 274.722 5.05433 5.07586 -122.331 -179.958 2412320.0
182 -0.03185 8.83489e-05 2770.14 274.762 5.05506 5.07709 -125.403 -184.645 2437390.0
183 -0.03175 8.83492e-05 2770.14 274.803 5.05584 5.07847 -128.566 -189.242 2462890.0
184 -0.03165 8.8348e-05 2770.13 274.847 5.05659 5.07993 -131.826 -194.327 2488100.0
185 -0.03155 8.83492e-05 2770.13 274.896 5.05756 5.08137 -135.507 -199.36 2517920.0
186 -0.03145 8.83495e-05 2770.12 274.933 5.05825 5.08251 -138.125 -203.111 2537940.0
187 -0.03135 8.83489e-05 2770.11 274.973 5.05896 5.08396 -141.665 -208.858 2569760.0
188 -0.03125 8.83504e-05 2770.11 275.02 5.0599 5.08549 -144.699 -213.628 2594600.0
189 -0.03115 8.83496e-05 2770.1 275.053 5.06048 5.0867 -147.526 -218.233 2617620.0
190 -0.03105 8.83496e-05 2770.1 275.111 5.06154 5.08841 -151.647 -223.932 2649540.0
191 -0.03095 8.83507e-05 2770.09 275.167 5.06263 5.09047 -156.165 -231.062 2686650.0
192 -0.03085 8.83505e-05 2770.08 275.225 5.06369 5.09241 -160.304 -237.08 2717430.0
193 -0.03075 8.83506e-05 2770.08 275.268 5.06448 5.09358 -163.634 -241.702 2746320.0
194 -0.03065 8.83519e-05 2770.07 275.327 5.06564 5.09542 -168.244 -248.238 2782960.0
195 -0.03055 8.83498e-05 2770.06 275.381 5.06652 5.09715 -172.246 -254.368 2815630.0
196 -0.03045 8.8352e-05 2770.05 275.439 5.06771 5.09916 -176.639 -260.997 2850790.0
197 -0.03035 8.83521e-05 2770.04 275.509 5.069 5.10153 -181.623 -268.605 2887360.0
198 -0.03025 8.83512e-05 2770.04 275.564 5.06997 5.10331 -185.797 -274.903 2921960.0
199 -0.03015 8.83516e-05 2770.02 275.63 5.07121 5.10565 -191.398 -283.575 2968650.0
200 -0.03005 8.83533e-05 2770.02 275.703 5.07264 5.108 -196.569 -290.898 3007760.0
201 -0.02995 8.83528e-05 2770.01 275.754 5.07356 5.10959 -200.305 -296.991 3039320.0
202 -0.02985 8.83536e-05 2770.0 275.829 5.07497 5.11205 -206.078 -305.527 3088840.0
203 -0.02975 8.83528e-05 2769.99 275.895 5.07614 5.11401 -211.07 -312.282 3125300.0
204 -0.02965 8.83541e-05 2769.98 275.958 5.07737 5.11623 -215.741 -319.579 3164790.0
205 -0.02955 8.83534e-05 2769.97 276.039 5.07883 5.11869 -221.793 -328.442 3212210.0
206 -0.02945 8.83551e-05 2769.96 276.116 5.08035 5.12139 -227.725 -337.421 3260350.0
207 -0.02935 8.83548e-05 2769.95 276.187 5.08164 5.12345 -233.29 -345.154 3305140.0
208 -0.02925 8.83545e-05 2769.95 276.251 5.08279 5.12558 -237.837 -352.492 3345100.0
209 -0.02915 8.83552e-05 2769.93 276.322 5.08413 5.12782 -243.45 -360.76 3390180.0
210 -0.02905 8.83558e-05 2769.92 276.404 5.08567 5.13063 -249.427 -370.032 3438920.0
211 -0.02895 8.83562e-05 2769.91 276.485 5.0872 5.13324 -255.654 -379.251 3488110.0
212 -0.02885 8.83556e-05 2769.9 276.577 5.08886 5.13598 -262.572 -388.891 3543050.0
213 -0.02875 8.83568e-05 2769.89 276.684 5.09089 5.13968 -270.891 -401.224 3607030.0
214 -0.02865 8.83568e-05 2769.87 276.78 5.09267 5.14267 -278.195 -411.972 3664450.0
215 -0.02855 8.8358e-05 2769.86 276.896 5.09486 5.14651 -286.631 -424.506 3730600.0
216 -0.02845 8.83575e-05 2769.84 276.994 5.09663 5.1495 -293.887 -434.674 3785770.0
217 -0.02835 8.83592e-05 2769.84 277.091 5.09852 5.153 -301.514 -446.688 3849230.0
218 -0.02825 8.83589e-05 2769.81 277.207 5.10063 5.15668 -310.342 -459.027 3917170.0
219 -0.02815 8.83595e-05 2769.8 277.322 5.10279 5.16041 -318.677 -471.373 3979960.0
220 -0.02805 8.83609e-05 2769.79 277.437 5.10498 5.16437 -327.488 -484.551 4050990.0
221 -0.02795 8.836e-05 2769.77 277.555 5.10709 5.16817 -336.801 -498.599 4127310.0
222 -0.02785 8.83611e-05 2769.76 277.671 5.1093 5.17183 -345.159 -510.629 4191960.0
223 -0.02775 8.83621e-05 2769.74 277.802 5.11177 5.17591 -355.335 -524.774 4271230.0
224 -0.02765 8.83613e-05 2769.72 277.914 5.11378 5.1795 -363.677 -537.466 4339300.0
225 -0.02755 8.83628e-05 2769.71 278.037 5.11613 5.18369 -372.873 -551.365 4412310.0
226 -0.02745 8.83629e-05 2769.69 278.139 5.11801 5.18694 -380.617 -563.476 4479720.0
227 -0.02735 8.83642e-05 2769.67 278.277 5.12064 5.19159 -390.928 -578.433 4557160.0
228 -0.02725 8.8365e-05 2769.66 278.434 5.12356 5.19667 -403.142 -596.221 4656070.0
229 -0.02715 8.83644e-05 2769.63 278.598 5.12656 5.20197 -415.198 -613.617 4744010.0
230 -0.02705 8.83651e-05 2769.61 278.75 5.12939 5.20706 -426.818 -630.948 4838240.0
231 -0.02695 8.8367e-05 2769.6 278.874 5.13178 5.211 -436.149 -645.142 4914780.0
232 -0.02685 8.83674e-05 2769.57 279.029 5.13465 5.21598 -447.677 -662.149 5007150.0
233 -0.02675 8.83676e-05 2769.55 279.174 5.13734 5.22078 -459.142 -679.331 5101350.0
234 -0.02665 8.83685e-05 2769.53 279.347 5.14057 5.22629 -471.686 -697.199 5197120.0
235 -0.02655 8.83692e-05 2769.51 279.507 5.14355 5.23168 -483.82 -715.98 5292640.0
236 -0.02645 8.83701e-05 2769.49 279.693 5.14704 5.23785 -498.141 -737.174 5409110.0
237 -0.02635 8.83701e-05 2769.45 279.892 5.15069 5.24425 -512.934 -758.324 5518930.0
238 -0.02625 8.83713e-05 2769.44 280.063 5.1539 5.25007 -525.839 -778.037 5623640.0
239 -0.02615 8.83726e-05 2769.41 280.206 5.15662 5.25484 -536.79 -795.369 5715270.0
240 -0.02605 8.83732e-05 2769.39 280.408 5.16038 5.26135 -551.837 -817.751 5836930.0
241 -0.02595 8.83735e-05 2769.36 280.609 5.16408 5.26772 -567.189 -839.434 5954900.0
242 -0.02585 8.83738e-05 2769.34 280.791 5.16746 5.2737 -581.04 -860.542 6066250.0
243 -0.02575 8.83756e-05 2769.31 281.001 5.17143 5.28045 -596.787 -883.497 6191910.0
244 -0.02565 8.83768e-05 2769.29 281.182 5.17483 5.28664 -610.444 -905.021 6304310.0
245 -0.02555 8.83766e-05 2769.26 281.393 5.17869 5.29355 -626.414 -928.744 6429690.0
246 -0.02545 8.83776e-05 2769.22 281.635 5.18321 5.30131 -644.685 -955.102 6571710.0
247 -0.02535 8.83791e-05 2769.19 281.856 5.18735 5.30859 -661.096 -979.859 6701870.0
248 -0.02525 8.83798e-05 2769.16 282.093 5.19176 5.31619 -679.174 -1006.1 6845450.0
249 -0.02515 8.83812e-05 2769.13 282.336 5.19632 5.32425 -697.442 -1033.28 6989340.0
250 -0.02505 8.83821e-05 2769.1 282.575 5.20076 5.332 -715.71 -1060.41 7134720.0
251 -0.02495 8.83826e-05 2769.07 282.819 5.20529 5.34017 -733.769 -1087.98 7278800.0
252 -0.02485 8.83849e-05 2769.03 283.082 5.21027 5.34877 -753.997 -1118.03 7439720.0
253 -0.02475 8.83853e-05 2768.99 283.387 5.2159 5.35817 -776.804 -1149.49 7613270.0
254 -0.02465 8.83862e-05 2768.95 283.679 5.22133 5.36822 -799.201 -1183.66 7789580.0
255 -0.02455 8.83884e-05 2768.91 283.967 5.22677 5.37761 -820.064 -1214.51 7949880.0
256 -0.02445 8.83893e-05 2768.87 284.259 5.23219 5.38738 -842.891 -1248.82 8133540.0
257 -0.02435 8.83908e-05 2768.83 284.567 5.23795 5.39778 -866.143 -1283.94 8316890.0
258 -0.02425 8.83915e-05 2768.79 284.853 5.24325 5.40729 -887.513 -1316.55 8486020.0
259 -0.02415 8.83933e-05 2768.75 285.158 5.24897 5.41713 -910.616 -1350.73 8674340.0
260 -0.02405 8.83946e-05 2768.7 285.506 5.25545 5.42848 -936.897 -1388.76 8874500.0
261 -0.02395 8.83974e-05 2768.66 285.829 5.26157 5.43976 -961.033 -1426.35 9065990.0
262 -0.02385 8.83975e-05 2768.61 286.155 5.26758 5.45012 -986.098 -1463.13 9266750.0
263 -0.02375 8.8399e-05 2768.57 286.53 5.27456 5.46208 -1014.33 -1503.54 9487190.0
264 -0.02365 8.83994e-05 2768.52 286.856 5.28059 5.47317 -1038.51 -1541.58 9680810.0
265 -0.02355 8.84026e-05 2768.47 287.267 5.28836 5.48677 -1069.65 -1587.45 9923430.0
266 -0.02345 8.84054e-05 2768.42 287.63 5.2952 5.49857 -1097.59 -1628.11 10144000.0
267 -0.02335 8.84047e-05 2768.36 288.02 5.30233 5.51142 -1126.67 -1672.36 10376300.0
268 -0.02325 8.84076e-05 2768.31 288.442 5.31028 5.525 -1158.33 -1718.17 10621700.0
269 -0.02315 8.84091e-05 2768.25 288.838 5.31766 5.53814 -1188.83 -1764.11 10865000.0
270 -0.02305 8.84107e-05 2768.19 289.271 5.32572 5.55276 -1220.92 -1812.71 11114800.0
271 -0.02295 8.84138e-05 2768.14 289.685 5.33354 5.56643 -1252.37 -1860.17 11367100.0
272 -0.02285 8.84146e-05 2768.07 290.147 5.34209 5.58209 -1286.98 -1912.38 11634000.0
273 -0.02275 8.84169e-05 2768.01 290.631 5.35115 5.59856 -1323.81 -1968.1 11921700.0
274 -0.02265 8.84189e-05 2767.94 291.11 5.36009 5.61403 -1359.86 -2020.66 12202400.0
275 -0.02255 8.84214e-05 2767.88 291.576 5.36883 5.62955 -1395.15 -2073.98 12485600.0
276 -0.02245 8.84234e-05 2767.81 292.105 5.37869 5.64675 -1435.1 -2132.49 12796000.0
277 -0.02235 8.84251e-05 2767.74 292.605 5.38799 5.66298 -1472.27 -2187.55 13088500.0
278 -0.02225 8.84285e-05 2767.66 293.162 5.39847 5.68215 -1515.24 -2252.62 13423000.0
279 -0.02215 8.84309e-05 2767.59 293.729 5.40905 5.70063 -1557.22 -2314.16 13751300.0
280 -0.02205 8.84315e-05 2767.51 294.296 5.41952 5.71927 -1600.28 -2377.89 14083400.0
281 -0.02195 8.84351e-05 2767.44 294.87 5.43031 5.73829 -1643.28 -2441.98 14422400.0
282 -0.02185 8.84386e-05 2767.36 295.473 5.44164 5.75764 -1689.12 -2508.84 14784000.0
283 -0.02175 8.84403e-05 2767.26 296.155 5.45431 5.7803 -1740.8 -2584.14 15177900.0
284 -0.02165 8.84425e-05 2767.18 296.764 5.46565 5.80048 -1785.96 -2652.3 15530000.0
285 -0.02155 8.84466e-05 2767.1 297.402 5.47766 5.82165 -1834.61 -2725.16 15918500.0
286 -0.02145 8.84493e-05 2767.0 298.098 5.49064 5.84495 -1887.25 -2803.91 16326200.0
287 -0.02135 8.84521e-05 2766.91 298.777 5.50333 5.86684 -1937.79 -2877.29 16714500.0
288 -0.02125 8.84558e-05 2766.82 299.444 5.51583 5.88925 -1988.84 -2955.61 17129600.0
289 -0.02115 8.84581e-05 2766.72 300.142 5.52883 5.91224 -2041.51 -3034.23 17543900.0
290 -0.02105 8.84611e-05 2766.62 300.935 5.54364 5.938 -2100.92 -3120.49 17998800.0
291 -0.02095 8.84642e-05 2766.51 301.722 5.55832 5.96377 -2160.6 -3208.76 18466600.0
292 -0.02085 8.84673e-05 2766.41 302.493 5.57272 5.98906 -2218.6 -3295.1 18922700.0
293 -0.02075 8.84716e-05 2766.3 303.3 5.58786 6.01613 -2279.21 -3386.27 19395500.0
294 -0.02065 8.84759e-05 2766.18 304.179 5.60433 6.04571 -2345.87 -3485.88 19912100.0
295 -0.02055 8.84784e-05 2766.05 305.057 5.62067 6.07523 -2412.11 -3585.69 20429000.0
296 -0.02045 8.84836e-05 2765.94 305.968 5.63779 6.10486 -2480.16 -3684.66 20952100.0
297 -0.02035 8.84863e-05 2765.81 306.836 5.65396 6.13383 -2545.94 -3784.28 21472800.0
298 -0.02025 8.84914e-05 2765.68 307.797 5.672 6.16633 -2618.82 -3893.89 22042400.0
299 -0.02015 8.84961e-05 2765.55 308.778 5.69038 6.19954 -2692.67 -4005.53 22615400.0
300 -0.02005 8.84997e-05 2765.41 309.811 5.70963 6.2335 -2770.41 -4119.96 23216000.0
301 -0.01995 8.85032e-05 2765.27 310.809 5.72825 6.26628 -2845.32 -4231.28 23800900.0
302 -0.01985 8.85092e-05 2765.12 311.915 5.74902 6.30359 -2929.01 -4356.53 24448900.0
303 -0.01975 8.85147e-05 2764.97 313.001 5.7694 6.33938 -3011.26 -4477.94 25089500.0
304 -0.01965 8.8518e-05 2764.83 314.063 5.78919 6.3749 -3090.26 -4597.57 25707400.0
305 -0.01955 8.85227e-05 2764.66 315.267 5.8117 6.41541 -3181.74 -4733.64 26413400.0
306 -0.01945 8.85294e-05 2764.51 316.467 5.83427 6.45484 -3272.01 -4866.78 27115000.0
307 -0.01935 8.85342e-05 2764.33 317.698 5.85726 6.49582 -3365.07 -5004.93 27834300.0
308 -0.01925 8.85399e-05 2764.16 318.962 5.88095 6.53842 -3459.41 -5146.68 28562400.0
309 -0.01915 8.85443e-05 2763.99 320.219 5.90442 6.57988 -3554.41 -5288.73 29309900.0
310 -0.01905 8.85525e-05 2763.82 321.514 5.92886 6.62245 -3651.92 -5432.57 30070200.0
311 -0.01895 8.85556e-05 2763.61 322.955 5.95562 6.6709 -3760.85 -5595.92 30912700.0
312 -0.01885 8.85634e-05 2763.43 324.323 5.98139 6.71649 -3863.22 -5748.94 31707900.0
313 -0.01875 8.85693e-05 2763.22 325.811 6.00922 6.7661 -3976.32 -5917.27 32587300.0
314 -0.01865 8.85768e-05 2763.02 327.333 6.03781 6.81739 -4089.9 -6087.27 33456400.0
315 -0.01855 8.85825e-05 2762.81 328.849 6.06616 6.86763 -4204.26 -6256.8 34344400.0
316 -0.01845 8.85898e-05 2762.6 330.399 6.09526 6.91954 -4320.98 -6432.39 35259700.0
317 -0.01835 8.85967e-05 2762.39 331.929 6.12396 6.97071 -4435.3 -6604.7 36149600.0
318 -0.01825 8.8603e-05 2762.16 333.61 6.15542 7.0265 -4562.79 -6793.51 37135900.0
319 -0.01815 8.86126e-05 2761.91 335.41 6.1893 7.08776 -4698.04 -6996.02 38171700.0
320 -0.01805 8.86193e-05 2761.66 337.278 6.22424 7.14915 -4838.83 -7201.07 39244400.0
321 -0.01795 8.86279e-05 2761.41 339.089 6.25826 7.21072 -4974.89 -7406.33 40296200.0
322 -0.01785 8.86363e-05 2761.15 340.966 6.29351 7.27319 -5116.29 -7617.06 41394200.0
323 -0.01775 8.86448e-05 2760.89 342.888 6.3296 7.33783 -5261.03 -7834.0 42514700.0
324 -0.01765 8.86538e-05 2760.61 344.909 6.36754 7.40517 -5412.56 -8059.59 43684600.0
325 -0.01755 8.86624e-05 2760.32 346.996 6.4067 7.47459 -5569.47 -8290.99 44882900.0
326 -0.01745 8.86725e-05 2760.03 349.178 6.44771 7.547 -5734.38 -8533.57 46156500.0
327 -0.01735 8.86815e-05 2759.73 351.305 6.48764 7.61901 -5894.24 -8774.69 47393600.0
328 -0.01725 8.86916e-05 2759.43 353.553 6.52991 7.69449 -6062.52 -9025.37 48683600.0
329 -0.01715 8.87011e-05 2759.11 355.849 6.57302 7.77101 -6235.17 -9282.34 50021500.0
330 -0.01705 8.87121e-05 2758.78 358.264 6.61844 7.85219 -6417.19 -9552.85 51418100.0
331 -0.01695 8.87235e-05 2758.45 360.665 6.66365 7.93235 -6597.0 -9820.96 52806500.0
332 -0.01685 8.87337e-05 2758.11 363.141 6.71017 8.01634 -6784.23 -10103.0 54262900.0
333 -0.01675 8.87454e-05 2757.74 365.788 6.75998 8.10542 -6980.82 -10395.4 55750200.0
334 -0.01665 8.8757e-05 2757.37 368.478 6.81058 8.19563 -7183.7 -10696.9 57314600.0
335 -0.01655 8.87703e-05 2756.98 371.287 6.86352 8.29085 -7394.77 -11011.7 58924200.0
336 -0.01645 8.8783e-05 2756.59 374.088 6.9163 8.38664 -7605.66 -11331.4 60558100.0
337 -0.01635 8.87952e-05 2756.2 376.961 6.97036 8.48285 -7820.04 -11651.3 62203100.0
338 -0.01625 8.88092e-05 2755.78 380.005 7.02777 8.5851 -8048.7 -11990.5 63952600.0
339 -0.01615 8.88218e-05 2755.35 383.128 7.08652 8.69025 -8283.01 -12340.4 65751100.0
340 -0.01605 8.88375e-05 2754.9 386.348 7.14734 8.7988 -8524.25 -12698.2 67588600.0
341 -0.01595 8.88524e-05 2754.44 389.726 7.21104 8.91254 -8779.02 -13076.4 69540200.0
342 -0.01585 8.88664e-05 2753.98 393.018 7.2731 9.02322 -9024.35 -13443.6 71426200.0
343 -0.01575 8.88824e-05 2753.49 396.597 7.34066 9.14514 -9293.18 -13846.2 73481300.0
344 -0.01565 8.88993e-05 2752.99 400.177 7.40832 9.26702 -9561.42 -14248.1 75532600.0
345 -0.01555 8.89162e-05 2752.45 404.08 7.482 9.39885 -9854.3 -14681.4 77750500.0
346 -0.01545 8.89337e-05 2751.94 407.751 7.55146 9.52437 -10128.1 -15096.3 79858600.0
347 -0.01535 8.89509e-05 2751.37 411.802 7.62795 9.66116 -10432.3 -15546.7 82170000.0
348 -0.01525 8.89688e-05 2750.8 415.959 7.70651 9.80172 -10743.3 -16008.6 84534900.0
349 -0.01515 8.89894e-05 2750.22 420.157 7.7861 9.94317 -11058.2 -16475.3 86937900.0
350 -0.01505 8.90082e-05 2749.61 424.577 7.86967 10.0925 -11388.5 -16964.8 89443500.0
351 -0.01495 8.9028e-05 2749.0 428.945 7.9524 10.2416 -11715.5 -17455.2 91942100.0
352 -0.01485 8.90499e-05 2748.35 433.579 8.04029 10.4 -12061.6 -17974.5 94575000.0
353 -0.01475 8.90696e-05 2747.7 438.197 8.12772 10.5586 -12408.3 -18498.7 97245600.0
354 -0.01465 8.90912e-05 2747.02 443.11 8.22084 10.7242 -12773.7 -19038.4 99998300.0