TITLE = "DSMC"
VARIABLES = "ID" "X" "rho" "v1" "Ttrans" "p" "p1" "q1" "mv1v1v1" "mvvv1v1"
ZONE T="Ma=3.6_inv", I=1000, J=1, K=1, F=POINT
1000 -0.02995 0.000286952 -341.177 1340.61 80.1088 80.1041 -1.13757 -0.34569 111810000.0
999 -0.02985 0.000286955 -341.176 1340.64 80.1116 80.1045 -0.994304 -2.64743 111813000.0
998 -0.02975 0.000286972 -341.156 1340.63 80.1159 80.107 -1.74777 -8.23512 111819000.0
997 -0.02965 0.000286957 -341.174 1340.64 80.1121 80.1043 -0.463362 -5.14646 111816000.0
996 -0.02955 0.000286949 -341.182 1340.58 80.1062 80.1044 -1.71677 -4.06188 111817000.0
995 -0.02945 0.000286958 -341.174 1340.59 80.1095 80.1055 -2.37371 -6.18868 111817000.0
994 -0.02935 0.000286953 -341.179 1340.62 80.1099 80.1044 -0.991753 -4.84114 111815000.0
993 -0.02925 0.000286932 -341.203 1340.63 80.1043 80.1025 1.22597 0.344974 111813000.0
992 -0.02915 0.000286932 -341.205 1340.58 80.102 80.1006 -0.256999 -1.49686 111808000.0
991 -0.02905 0.000286905 -341.235 1340.55 80.0921 80.099 0.429675 4.212 111807000.0
990 -0.02895 0.000286932 -341.206 1340.54 80.0995 80.1022 -0.945966 -0.888786 111811000.0
989 -0.02885 0.000286942 -341.192 1340.53 80.1014 80.1037 -2.98822 -3.023 111811000.0
988 -0.02875 0.000286938 -341.202 1340.59 80.104 80.1027 -0.0499266 0.339569 111813000.0
987 -0.02865 0.000286954 -341.178 1340.63 80.1111 80.1032 -0.184245 -3.20698 111813000.0
986 -0.02855 0.000286928 -341.211 1340.67 80.1056 80.1009 2.32769 1.34616 111813000.0
985 -0.02845 0.000286926 -341.212 1340.67 80.1052 80.1006 2.91571 1.46588 111812000.0
984 -0.02835 0.000286938 -341.199 1340.58 80.1031 80.1033 -1.20731 -0.59613 111813000.0
983 -0.02825 0.000286931 -341.204 1340.55 80.0999 80.1019 -0.931061 1.19109 111811000.0
982 -0.02815 0.000286938 -341.199 1340.64 80.107 80.1026 1.1196 0.984013 111815000.0
981 -0.02805 0.000286951 -341.184 1340.6 80.108 80.1032 -1.04487 0.192486 111815000.0
980 -0.02795 0.000286928 -341.211 1340.66 80.1055 80.1013 3.19942 5.73547 111815000.0
979 -0.02785 0.000286936 -341.202 1340.68 80.1091 80.1027 2.60747 3.04043 111819000.0
978 -0.02775 0.000286933 -341.204 1340.66 80.1068 80.102 2.41264 4.5144 111817000.0
977 -0.02765 0.000286936 -341.203 1340.62 80.1053 80.1023 1.2869 6.27904 111817000.0
976 -0.02755 0.000286966 -341.164 1340.64 80.1146 80.1052 -1.72147 -1.6471 111819000.0
975 -0.02745 0.000286934 -341.204 1340.64 80.106 80.1019 2.17307 6.20651 111819000.0
974 -0.02735 0.000286948 -341.19 1340.62 80.1086 80.1039 0.0551687 3.80247 111820000.0
973 -0.02725 0.000286945 -341.192 1340.71 80.1129 80.1025 2.8511 4.78984 111819000.0
972 -0.02715 0.000286947 -341.189 1340.62 80.1079 80.1023 -0.128266 2.79396 111817000.0
971 -0.02705 0.000286922 -341.22 1340.63 80.1019 80.0995 2.51752 8.44627 111813000.0
970 -0.02695 0.000286947 -341.191 1340.64 80.1096 80.1025 0.532253 1.53305 111817000.0
969 -0.02685 0.000286948 -341.191 1340.68 80.1117 80.1022 1.76955 1.93497 111817000.0
968 -0.02675 0.000286928 -341.216 1340.66 80.1053 80.1 3.31959 7.41111 111816000.0
967 -0.02665 0.00028693 -341.215 1340.67 80.1065 80.1015 3.35449 7.41713 111817000.0
966 -0.02655 0.000286934 -341.21 1340.63 80.1054 80.1005 1.58204 5.71023 111814000.0
965 -0.02645 0.000286923 -341.223 1340.68 80.1051 80.0999 3.99969 7.83671 111814000.0
964 -0.02635 0.000286927 -341.219 1340.65 80.1044 80.1005 3.09237 7.29227 111813000.0
963 -0.02625 0.000286938 -341.207 1340.55 80.1016 80.1012 -0.677508 4.71812 111810000.0
962 -0.02615 0.000286936 -341.208 1340.62 80.1054 80.1013 1.55841 4.29197 111811000.0
961 -0.02605 0.000286952 -341.189 1340.64 80.1109 80.1034 0.291583 0.915181 111812000.0
960 -0.02595 0.000286942 -341.198 1340.63 80.1075 80.1016 1.28421 4.07467 111809000.0
959 -0.02585 0.000286955 -341.186 1340.58 80.1082 80.1034 -1.63012 -0.682784 111809000.0
958 -0.02575 0.000286952 -341.186 1340.59 80.1078 80.1042 -1.14943 0.846591 111809000.0
957 -0.02565 0.000286957 -341.181 1340.6 80.11 80.1043 -1.35632 -1.41984 111809000.0
956 -0.02555 0.000286955 -341.184 1340.58 80.1081 80.1039 -1.68642 0.743085 111808000.0
955 -0.02545 0.000286964 -341.174 1340.68 80.1164 80.1048 0.306641 -2.12798 111814000.0
954 -0.02535 0.00028695 -341.189 1340.61 80.1082 80.1032 -0.847604 -0.742306 111811000.0
953 -0.02525 0.000286959 -341.177 1340.62 80.1115 80.1034 -0.897847 -1.67922 111811000.0
952 -0.02515 0.000286946 -341.194 1340.67 80.1106 80.1017 1.09768 0.54788 111810000.0
951 -0.02505 0.000286944 -341.194 1340.7 80.1123 80.1028 3.01955 1.92436 111813000.0
950 -0.02495 0.000286935 -341.206 1340.64 80.1059 80.1009 1.61642 3.50571 111809000.0
949 -0.02485 0.000286933 -341.211 1340.58 80.1021 80.1006 0.203243 3.39012 111809000.0
948 -0.02475 0.000286927 -341.215 1340.58 80.1005 80.1006 1.19799 5.33182 111809000.0
947 -0.02465 0.000286917 -341.228 1340.61 80.099 80.1 3.19384 6.83785 111809000.0
946 -0.02455 0.000286933 -341.208 1340.61 80.1035 80.1014 1.23079 3.0977 111811000.0
945 -0.02445 0.00028693 -341.213 1340.63 80.1043 80.1008 2.7674 3.57534 111813000.0
944 -0.02435 0.000286929 -341.214 1340.62 80.1035 80.1002 2.61855 5.2113 111811000.0
943 -0.02425 0.000286955 -341.181 1340.71 80.1157 80.1038 2.34092 -0.955802 111816000.0
942 -0.02415 0.000286946 -341.192 1340.63 80.1086 80.1036 1.79305 2.23415 111816000.0
941 -0.02405 0.00028695 -341.185 1340.61 80.1086 80.1042 -0.160183 0.888251 111814000.0
940 -0.02395 0.000286968 -341.164 1340.59 80.1125 80.107 -2.14987 -3.3931 111817000.0
939 -0.02385 0.00028695 -341.186 1340.65 80.111 80.1038 0.991022 -0.150761 111813000.0
938 -0.02375 0.000286943 -341.192 1340.62 80.1069 80.1027 1.02071 4.10067 111813000.0
937 -0.02365 0.000286956 -341.177 1340.61 80.1101 80.1036 -0.927854 -0.730569 111812000.0
936 -0.02355 0.000286952 -341.185 1340.61 80.1088 80.1042 -0.927006 -0.16363 111814000.0
935 -0.02345 0.000286957 -341.177 1340.62 80.1112 80.1038 -0.760421 -0.87359 111815000.0
934 -0.02335 0.00028695 -341.187 1340.56 80.1056 80.1023 -1.2134 0.135934 111809000.0
933 -0.02325 0.000286955 -341.182 1340.58 80.1083 80.1032 -1.26014 -0.343004 111812000.0
932 -0.02315 0.000286938 -341.203 1340.64 80.1067 80.1023 1.50088 2.87853 111813000.0
931 -0.02305 0.000286949 -341.188 1340.61 80.108 80.1027 0.313101 0.07233 111810000.0
930 -0.02295 0.00028695 -341.19 1340.6 80.1079 80.103 -0.0620006 -2.10203 111810000.0
929 -0.02285 0.00028695 -341.188 1340.61 80.1083 80.1031 -0.206203 -2.00367 111812000.0
928 -0.02275 0.000286944 -341.195 1340.6 80.1062 80.102 1.21544 1.43315 111811000.0
927 -0.02265 0.000286952 -341.186 1340.67 80.1126 80.1042 1.36315 -0.275091 111816000.0
926 -0.02255 0.000286946 -341.196 1340.6 80.1065 80.103 0.306058 0.750086 111814000.0
925 -0.02245 0.000286973 -341.159 1340.68 80.1188 80.1068 -0.0595567 -6.83805 111818000.0
924 -0.02235 0.000286974 -341.16 1340.59 80.1142 80.1073 -2.52249 -6.78403 111817000.0
923 -0.02225 0.000286975 -341.161 1340.61 80.1155 80.1062 -2.04399 -6.58016 111815000.0
922 -0.02215 0.000286965 -341.172 1340.6 80.1118 80.1057 -1.78087 -4.52408 111814000.0
921 -0.02205 0.000286977 -341.16 1340.61 80.1158 80.1068 -2.89788 -8.84769 111814000.0
920 -0.02195 0.000286953 -341.184 1340.61 80.1096 80.1035 -0.329926 -3.9322 111809000.0
919 -0.02185 0.000286963 -341.175 1340.57 80.1095 80.1052 -2.46041 -7.35983 111810000.0
918 -0.02175 0.000286952 -341.185 1340.6 80.1087 80.1039 -0.345473 -3.80851 111808000.0
917 -0.02165 0.000286956 -341.181 1340.59 80.1092 80.1048 -0.784106 -3.32184 111810000.0
916 -0.02155 0.000286946 -341.194 1340.56 80.1046 80.1044 -1.06425 0.525378 111809000.0
915 -0.02145 0.000286948 -341.188 1340.56 80.1048 80.1035 -1.79678 -0.636461 111806000.0
914 -0.02135 0.000286948 -341.189 1340.51 80.1019 80.1041 -2.76397 0.53204 111807000.0
913 -0.02125 0.000286936 -341.204 1340.51 80.0983 80.1021 -2.02587 3.54422 111803000.0
912 -0.02115 0.00028693 -341.211 1340.55 80.0995 80.1022 0.340802 4.47005 111804000.0
911 -0.02105 0.000286928 -341.216 1340.61 80.1022 80.1019 1.83962 3.60285 111805000.0
910 -0.02095 0.000286941 -341.2 1340.63 80.1072 80.1036 2.08598 0.67128 111807000.0
909 -0.02085 0.000286935 -341.206 1340.64 80.1063 80.1026 3.35126 3.25931 111805000.0
908 -0.02075 0.000286933 -341.209 1340.64 80.1057 80.1019 2.68325 3.21066 111803000.0
907 -0.02065 0.00028694 -341.198 1340.63 80.1072 80.1024 2.45678 2.45278 111804000.0
906 -0.02055 0.000286948 -341.194 1340.64 80.1098 80.1045 1.39791 1.39554 111808000.0
905 -0.02045 0.000286956 -341.184 1340.61 80.1101 80.1053 0.672108 1.88343 111808000.0
904 -0.02035 0.000286962 -341.176 1340.68 80.1164 80.1052 1.8784 1.22341 111810000.0
903 -0.02025 0.000286957 -341.182 1340.6 80.1103 80.1058 0.299327 2.71792 111811000.0
902 -0.02015 0.000286968 -341.168 1340.65 80.1161 80.1069 0.206361 0.255241 111812000.0
901 -0.02005 0.00028695 -341.188 1340.65 80.1111 80.1039 1.96403 4.3821 111809000.0
900 -0.01995 0.000286944 -341.198 1340.61 80.107 80.1034 1.35167 4.42027 111809000.0
899 -0.01985 0.000286944 -341.196 1340.67 80.1101 80.1043 3.14834 3.93451 111811000.0
898 -0.01975 0.000286947 -341.19 1340.63 80.1088 80.1036 1.61467 2.95458 111809000.0
897 -0.01965 0.000286959 -341.18 1340.64 80.113 80.1048 0.302978 -0.705615 111811000.0
896 -0.01955 0.00028695 -341.187 1340.71 80.1147 80.1036 3.89582 2.11857 111812000.0
895 -0.01945 0.000286951 -341.186 1340.69 80.1134 80.1046 2.36858 0.323732 111813000.0
894 -0.01935 0.000286947 -341.192 1340.73 80.1151 80.1041 4.91704 1.94819 111814000.0
893 -0.01925 0.000286941 -341.198 1340.73 80.113 80.1022 5.18198 3.774 111813000.0
892 -0.01915 0.000286933 -341.208 1340.72 80.1101 80.1028 4.9611 4.72726 111815000.0
891 -0.01905 0.000286953 -341.183 1340.67 80.1129 80.1044 2.39578 0.410578 111816000.0
890 -0.01895 0.000286939 -341.199 1340.61 80.1051 80.102 1.15181 2.21341 111811000.0
889 -0.01885 0.000286934 -341.207 1340.67 80.1073 80.1022 3.62685 3.9518 111813000.0
888 -0.01875 0.000286919 -341.223 1340.69 80.1046 80.1002 6.03023 7.58447 111811000.0
887 -0.01865 0.000286933 -341.208 1340.69 80.1084 80.1022 4.58118 3.52964 111814000.0
886 -0.01855 0.000286942 -341.195 1340.65 80.1086 80.1038 2.20916 0.731941 111814000.0
885 -0.01845 0.000286942 -341.198 1340.65 80.1087 80.1034 2.16828 0.032116 111813000.0
884 -0.01835 0.000286937 -341.2 1340.7 80.1103 80.1026 4.08843 1.5316 111812000.0
883 -0.01825 0.000286945 -341.191 1340.65 80.1096 80.1042 2.43043 0.890562 111814000.0
882 -0.01815 0.000286947 -341.191 1340.65 80.1101 80.1043 1.84802 1.84071 111813000.0
881 -0.01805 0.000286942 -341.196 1340.66 80.1093 80.1035 2.46084 4.03214 111811000.0
880 -0.01795 0.00028696 -341.172 1340.65 80.1135 80.1045 0.0866425 -0.710984 111809000.0
879 -0.01785 0.000286982 -341.148 1340.61 80.1177 80.1087 -2.87592 -5.94198 111813000.0
878 -0.01775 0.000286969 -341.161 1340.63 80.1148 80.1068 -1.37117 -1.84991 111810000.0
877 -0.01765 0.000286959 -341.172 1340.65 80.1137 80.106 0.0392582 -0.929246 111811000.0
876 -0.01755 0.000286955 -341.179 1340.66 80.1129 80.1039 0.878419 0.57572 111807000.0
875 -0.01745 0.00028695 -341.181 1340.66 80.1114 80.1049 1.54424 1.59026 111810000.0
874 -0.01735 0.000286958 -341.173 1340.69 80.1157 80.1055 1.02717 -0.952516 111812000.0
873 -0.01725 0.000286953 -341.18 1340.61 80.1094 80.1052 -0.947229 0.73415 111811000.0
872 -0.01715 0.000286963 -341.167 1340.66 80.1152 80.1065 -0.384865 -0.459313 111815000.0
871 -0.01705 0.000286964 -341.165 1340.68 80.1163 80.1065 0.280952 1.73615 111814000.0
870 -0.01695 0.000286955 -341.177 1340.64 80.1119 80.1052 0.744783 2.63712 111813000.0
869 -0.01685 0.000286953 -341.178 1340.68 80.1137 80.1047 1.31647 2.37443 111813000.0
868 -0.01675 0.000286952 -341.182 1340.62 80.1099 80.1051 0.320246 3.32006 111813000.0
867 -0.01665 0.000286932 -341.207 1340.64 80.1053 80.1027 2.1336 7.60719 111811000.0
866 -0.01655 0.000286921 -341.22 1340.64 80.102 80.1012 3.47419 10.1425 111808000.0
865 -0.01645 0.000286928 -341.208 1340.6 80.1015 80.1012 1.5571 7.43052 111805000.0
864 -0.01635 0.000286944 -341.192 1340.66 80.1099 80.103 2.04256 3.46313 111810000.0
863 -0.01625 0.000286931 -341.207 1340.61 80.1034 80.1023 1.1248 6.69084 111807000.0
862 -0.01615 0.000286953 -341.18 1340.63 80.1105 80.1045 -0.0237133 1.8488 111809000.0
861 -0.01605 0.00028696 -341.171 1340.62 80.112 80.1051 -0.697928 -1.22754 111809000.0
860 -0.01595 0.00028698 -341.149 1340.57 80.1143 80.107 -4.65275 -4.79197 111809000.0
859 -0.01585 0.000286976 -341.153 1340.52 80.1105 80.1075 -5.40004 -4.45311 111809000.0
858 -0.01575 0.000286956 -341.179 1340.6 80.1094 80.105 -1.3371 0.517122 111810000.0
857 -0.01565 0.000286955 -341.178 1340.64 80.1116 80.1035 0.847483 0.4345 111809000.0
856 -0.01555 0.000286957 -341.18 1340.64 80.1126 80.1047 -0.057641 1.30199 111813000.0
855 -0.01545 0.000286946 -341.188 1340.69 80.112 80.1024 2.67536 5.07635 111812000.0
854 -0.01535 0.000286942 -341.197 1340.76 80.115 80.1026 4.93107 5.24971 111815000.0
853 -0.01525 0.000286938 -341.199 1340.71 80.1115 80.1017 3.61574 4.2912 111813000.0
852 -0.01515 0.000286944 -341.193 1340.62 80.1076 80.1029 0.985551 3.48602 111809000.0
851 -0.01505 0.000286954 -341.183 1340.62 80.1101 80.1036 -0.416444 0.882707 111809000.0
850 -0.01495 0.000286962 -341.171 1340.67 80.1154 80.1042 0.636783 -0.652318 111811000.0
849 -0.01485 0.000286962 -341.173 1340.67 80.1154 80.1049 0.901563 0.663758 111813000.0
848 -0.01475 0.000286949 -341.189 1340.7 80.1135 80.1032 2.81452 1.88901 111812000.0
847 -0.01465 0.000286974 -341.16 1340.7 80.1207 80.1059 0.0753154 -4.6722 111810000.0
846 -0.01455 0.000286953 -341.18 1340.67 80.1128 80.1038 1.25311 0.468489 111808000.0
845 -0.01445 0.000286967 -341.164 1340.65 80.1154 80.1065 -1.22095 -2.1392 111810000.0
844 -0.01435 0.000286976 -341.155 1340.63 80.1173 80.1079 -2.33774 -3.46292 111810000.0
843 -0.01425 0.000286955 -341.178 1340.6 80.1094 80.1042 -1.02843 0.684138 111805000.0
842 -0.01415 0.000286954 -341.179 1340.57 80.107 80.1039 -2.23864 0.340824 111802000.0
841 -0.01405 0.000286949 -341.187 1340.7 80.1135 80.1039 2.26948 1.48607 111809000.0
840 -0.01395 0.000286941 -341.195 1340.66 80.1091 80.104 1.82249 3.80392 111809000.0
839 -0.01385 0.000286947 -341.19 1340.63 80.1092 80.1032 0.486995 1.98675 111807000.0
838 -0.01375 0.000286949 -341.185 1340.61 80.1082 80.1037 -0.669679 0.550464 111805000.0
837 -0.01365 0.000286949 -341.186 1340.65 80.1105 80.1038 0.961995 0.609314 111805000.0
836 -0.01355 0.000286951 -341.182 1340.64 80.1106 80.104 0.566719 0.471416 111806000.0
835 -0.01345 0.000286934 -341.2 1340.7 80.1092 80.1026 2.95398 4.00221 111807000.0
834 -0.01335 0.000286928 -341.21 1340.7 80.1075 80.1016 4.51302 7.64564 111803000.0
833 -0.01325 0.000286912 -341.229 1340.73 80.1047 80.0993 6.3059 11.3787 111801000.0
832 -0.01315 0.000286923 -341.215 1340.7 80.1063 80.1009 4.698 8.4839 111802000.0
831 -0.01305 0.000286925 -341.213 1340.71 80.1072 80.101 4.27383 8.20628 111801000.0
830 -0.01295 0.000286925 -341.214 1340.67 80.1053 80.1009 3.69401 8.36001 111800000.0
829 -0.01285 0.000286913 -341.229 1340.72 80.1049 80.0995 6.40329 11.3336 111801000.0
828 -0.01275 0.000286914 -341.226 1340.81 80.1102 80.0997 8.99077 9.95231 111804000.0
827 -0.01265 0.000286919 -341.217 1340.81 80.1118 80.1008 8.60584 8.61158 111803000.0
826 -0.01255 0.000286931 -341.205 1340.73 80.1103 80.1025 4.0459 4.52803 111802000.0
825 -0.01245 0.000286905 -341.235 1340.77 80.1055 80.0992 8.1561 10.6473 111800000.0
824 -0.01235 0.000286938 -341.195 1340.75 80.1136 80.1039 4.00458 2.64109 111802000.0
823 -0.01225 0.000286927 -341.208 1340.68 80.1062 80.1015 3.90957 4.42972 111799000.0
822 -0.01215 0.000286919 -341.217 1340.71 80.1056 80.1008 5.07612 5.74238 111795000.0
821 -0.01205 0.00028692 -341.216 1340.7 80.1054 80.1015 4.5779 4.71642 111793000.0
820 -0.01195 0.000286923 -341.208 1340.69 80.1059 80.1021 4.1659 4.4106 111794000.0
819 -0.01185 0.000286899 -341.239 1340.68 80.0985 80.0991 5.69771 8.86609 111789000.0
818 -0.01175 0.000286895 -341.244 1340.65 80.0958 80.0983 5.57834 7.70906 111787000.0
817 -0.01165 0.00028686 -341.285 1340.69 80.0883 80.0947 10.1752 16.4665 111783000.0
816 -0.01155 0.000286883 -341.261 1340.67 80.0935 80.0966 6.65872 9.33887 111784000.0
815 -0.01145 0.000286907 -341.229 1340.68 80.1006 80.1 4.80371 4.45863 111785000.0
814 -0.01135 0.000286906 -341.231 1340.65 80.0983 80.1006 3.97568 5.40937 111784000.0
813 -0.01125 0.000286904 -341.233 1340.62 80.0963 80.0988 3.56743 4.3132 111781000.0
812 -0.01115 0.000286893 -341.248 1340.67 80.0961 80.0982 5.79814 7.1836 111783000.0
811 -0.01105 0.000286881 -341.261 1340.71 80.0953 80.0965 8.24552 8.79048 111780000.0
810 -0.01095 0.000286876 -341.266 1340.72 80.0942 80.0954 8.57697 9.15819 111778000.0
809 -0.01085 0.000286867 -341.276 1340.75 80.0937 80.0949 10.6706 12.3204 111778000.0
808 -0.01075 0.000286867 -341.277 1340.83 80.0985 80.0949 13.2445 12.0485 111780000.0
807 -0.01065 0.000286849 -341.297 1340.84 80.0943 80.0926 15.2986 16.942 111777000.0
806 -0.01055 0.000286843 -341.306 1340.82 80.0909 80.0927 14.8436 18.3317 111773000.0
805 -0.01045 0.000286848 -341.299 1340.84 80.0938 80.0926 15.6518 16.4415 111771000.0
804 -0.01035 0.000286838 -341.31 1340.91 80.0949 80.0916 18.6357 17.899 111770000.0
803 -0.01025 0.000286822 -341.327 1340.95 80.0934 80.09 21.6898 20.9713 111769000.0
802 -0.01015 0.000286803 -341.353 1340.94 80.0871 80.0872 22.7315 24.1706 111762000.0
801 -0.01005 0.000286809 -341.342 1340.94 80.0888 80.0876 22.078 21.4661 111760000.0
800 -0.00995 0.000286805 -341.351 1340.89 80.0849 80.087 20.6206 21.366 111755000.0
799 -0.00985 0.000286802 -341.352 1340.96 80.0878 80.0872 22.8982 22.5708 111755000.0
798 -0.00975 0.000286792 -341.364 1340.9 80.0818 80.0854 23.0281 24.9938 111748000.0
797 -0.00965 0.000286782 -341.373 1340.94 80.0817 80.085 24.6089 25.8484 111746000.0
796 -0.00955 0.000286768 -341.392 1341.04 80.0837 80.084 28.6999 29.2774 111745000.0
795 -0.00945 0.000286755 -341.405 1340.97 80.0756 80.0823 27.6548 30.5499 111738000.0
794 -0.00935 0.000286732 -341.434 1340.95 80.068 80.0779 29.8596 34.0448 111731000.0
793 -0.00925 0.000286719 -341.451 1340.97 80.0653 80.0779 30.8748 35.921 111727000.0
792 -0.00915 0.000286697 -341.475 1341.0 80.0607 80.0747 33.878 39.1405 111719000.0
791 -0.00905 0.000286698 -341.474 1340.96 80.0588 80.0747 32.8918 39.8459 111716000.0
790 -0.00895 0.000286678 -341.5 1340.97 80.054 80.0729 34.9768 43.0075 111710000.0
789 -0.00885 0.000286689 -341.487 1340.96 80.0567 80.0739 34.5588 38.3102 111705000.0
788 -0.00875 0.000286667 -341.511 1340.95 80.05 80.0724 36.1838 41.102 111699000.0
787 -0.00865 0.00028664 -341.545 1340.93 80.0411 80.0677 37.5287 43.5722 111688000.0
786 -0.00855 0.000286634 -341.551 1341.01 80.0442 80.0682 41.3204 45.395 111685000.0
785 -0.00845 0.000286626 -341.56 1341.03 80.0434 80.067 41.7094 43.0244 111678000.0
784 -0.00835 0.000286579 -341.62 1341.0 80.0282 80.0614 45.4109 52.3316 111665000.0
783 -0.00825 0.000286565 -341.633 1341.1 80.0302 80.0601 49.9786 53.4719 111658000.0
782 -0.00815 0.000286549 -341.652 1341.15 80.0289 80.0573 52.9133 54.0312 111649000.0
781 -0.00805 0.000286522 -341.685 1341.19 80.0234 80.054 56.7455 57.6123 111639000.0
780 -0.00795 0.000286487 -341.724 1341.21 80.0153 80.0505 60.2538 62.0573 111629000.0
779 -0.00785 0.000286475 -341.741 1341.22 80.0122 80.0487 61.7869 60.6933 111618000.0
778 -0.00775 0.000286424 -341.801 1341.25 79.9997 80.0429 67.6572 68.7242 111605000.0
777 -0.00765 0.000286396 -341.834 1341.27 79.9934 80.0393 71.1285 71.6015 111589000.0
776 -0.00755 0.000286349 -341.89 1341.28 79.9809 80.0342 75.9313 77.1292 111576000.0
775 -0.00745 0.000286286 -341.968 1341.38 79.9688 80.0269 85.2751 85.9429 111561000.0
774 -0.00735 0.000286223 -342.039 1341.44 79.955 80.0195 92.3236 92.6647 111544000.0
773 -0.00725 0.000286187 -342.084 1341.51 79.9489 80.0147 97.975 95.5111 111525000.0
772 -0.00715 0.000286125 -342.159 1341.5 79.9311 80.0081 104.102 103.291 111506000.0
771 -0.00705 0.000286082 -342.213 1341.51 79.9197 80.0023 108.188 105.356 111487000.0
770 -0.00695 0.000286016 -342.293 1341.52 79.9018 79.9939 114.627 111.479 111464000.0
769 -0.00685 0.000285944 -342.376 1341.52 79.8816 79.9861 121.453 120.147 111442000.0
768 -0.00675 0.00028591 -342.415 1341.58 79.8758 79.9824 126.335 118.868 111422000.0
767 -0.00665 0.000285812 -342.531 1341.64 79.8523 79.9706 137.316 131.709 111391000.0
766 -0.00655 0.000285739 -342.621 1341.66 79.8327 79.9613 145.08 136.435 111362000.0
765 -0.00645 0.000285652 -342.722 1341.69 79.8102 79.9515 154.463 144.346 111334000.0
764 -0.00635 0.000285568 -342.824 1341.76 79.791 79.9418 164.02 151.827 111303000.0
763 -0.00625 0.000285467 -342.946 1341.82 79.7664 79.9303 176.065 160.993 111271000.0
762 -0.00615 0.000285357 -343.079 1341.87 79.7382 79.9171 187.018 170.015 111234000.0
761 -0.00605 0.000285226 -343.231 1341.87 79.7018 79.9002 200.528 183.3 111190000.0
760 -0.00595 0.000285078 -343.413 1341.97 79.6665 79.8832 216.805 196.79 111147000.0
759 -0.00585 0.000284933 -343.584 1342.01 79.6288 79.8665 232.4 210.157 111104000.0
758 -0.00575 0.0002848 -343.745 1342.05 79.5941 79.8501 246.36 218.881 111055000.0
757 -0.00565 0.000284631 -343.95 1342.1 79.5496 79.8297 263.867 232.976 111003000.0
756 -0.00555 0.000284462 -344.156 1342.19 79.5074 79.8093 282.423 245.265 110949000.0
755 -0.00545 0.00028427 -344.386 1342.19 79.4539 79.7864 301.333 261.817 110887000.0
754 -0.00535 0.000284067 -344.634 1342.21 79.3983 79.762 321.6 278.446 110824000.0
753 -0.00525 0.000283845 -344.903 1342.31 79.3422 79.7355 345.87 296.114 110755000.0
752 -0.00515 0.000283582 -345.221 1342.36 79.2717 79.7029 372.1 319.42 110678000.0
751 -0.00505 0.000283334 -345.527 1342.37 79.2031 79.6734 396.88 337.194 110601000.0
750 -0.00495 0.000283053 -345.871 1342.39 79.1256 79.6383 425.033 358.452 110513000.0
749 -0.00485 0.000282742 -346.25 1342.42 79.0402 79.6006 455.458 381.761 110419000.0
748 -0.00475 0.000282429 -346.631 1342.37 78.95 79.563 483.842 401.206 110318000.0
747 -0.00465 0.000282098 -347.038 1342.43 78.861 79.5236 518.226 422.814 110215000.0
746 -0.00455 0.0002817 -347.531 1342.46 78.7517 79.475 557.733 453.631 110100000.0
745 -0.00445 0.000281303 -348.023 1342.43 78.6386 79.4264 595.772 480.43 109979000.0
744 -0.00435 0.000280859 -348.569 1342.43 78.5145 79.371 639.567 510.376 109844000.0
743 -0.00425 0.000280362 -349.19 1342.48 78.3784 79.3106 689.338 547.883 109702000.0
742 -0.00415 0.000279834 -349.848 1342.47 78.2307 79.2446 741.804 587.199 109546000.0
741 -0.00405 0.000279273 -350.552 1342.46 78.0726 79.1749 795.456 624.885 109384000.0
740 -0.00395 0.000278673 -351.303 1342.41 77.9023 79.1006 853.737 663.935 109208000.0
739 -0.00385 0.000278004 -352.15 1342.36 77.7125 79.0152 918.499 709.956 109016000.0
738 -0.00375 0.000277278 -353.074 1342.27 77.5043 78.9241 988.28 763.615 108809000.0
737 -0.00365 0.000276517 -354.042 1342.23 77.2889 78.829 1062.44 817.585 108594000.0
736 -0.00355 0.00027569 -355.104 1342.2 77.0561 78.7235 1145.4 876.66 108361000.0
735 -0.00345 0.000274814 -356.234 1342.04 76.8023 78.6099 1228.79 935.347 108105000.0
734 -0.00335 0.000273849 -357.49 1341.88 76.5234 78.4861 1321.28 1004.17 107832000.0
733 -0.00325 0.000272839 -358.814 1341.77 76.2347 78.3543 1421.6 1074.09 107543000.0
732 -0.00315 0.000271723 -360.286 1341.54 75.9101 78.2084 1528.43 1154.68 107228000.0
731 -0.00305 0.000270538 -361.867 1341.32 75.5664 78.0519 1644.52 1238.96 106893000.0
730 -0.00295 0.000269249 -363.594 1341.04 75.1908 77.8813 1770.16 1337.17 106529000.0
729 -0.00285 0.000267893 -365.435 1340.67 74.7916 77.6987 1901.61 1434.92 106143000.0
728 -0.00275 0.000266411 -367.469 1340.3 74.3575 77.4977 2047.58 1549.19 105729000.0
727 -0.00265 0.000264842 -369.645 1339.96 73.9009 77.2819 2204.35 1670.57 105289000.0
726 -0.00255 0.000263156 -372.017 1339.46 73.4027 77.0484 2370.5 1805.16 104815000.0
725 -0.00245 0.000261373 -374.551 1338.83 72.8711 76.7964 2545.85 1946.04 104307000.0
724 -0.00235 0.00025947 -377.301 1338.15 72.3039 76.525 2734.86 2101.81 103768000.0
723 -0.00225 0.000257436 -380.279 1337.41 71.6975 76.2311 2938.76 2273.96 103194000.0
722 -0.00215 0.000255272 -383.502 1336.6 71.0517 75.912 3158.08 2461.42 102579000.0
721 -0.00205 0.000252992 -386.961 1335.66 70.3675 75.5709 3389.97 2665.51 101929000.0
720 -0.00195 0.000250588 -390.676 1334.55 69.6409 75.2041 3635.46 2884.24 101237000.0
719 -0.00185 0.000248026 -394.708 1333.36 68.8675 74.8062 3900.47 3130.31 100505000.0
718 -0.00175 0.000245353 -399.009 1331.97 68.0547 74.3813 4177.06 3389.76 99728800.0
717 -0.00165 0.000242546 -403.627 1330.43 67.198 73.9266 4471.31 3673.85 98914500.0
716 -0.00155 0.000239585 -408.618 1328.65 66.2889 73.4347 4783.82 3986.81 98050800.0
715 -0.00145 0.000236511 -413.924 1326.72 65.3435 72.9115 5111.78 4317.84 97147200.0
714 -0.00135 0.000233303 -419.619 1324.58 64.3531 72.3522 5458.8 4680.21 96201500.0
713 -0.00125 0.000229954 -425.73 1322.22 63.3162 71.7504 5825.08 5074.69 95208600.0
712 -0.00115 0.000226513 -432.196 1319.53 62.2419 71.1145 6204.41 5491.63 94176200.0
711 -0.00105 0.000222957 -439.091 1316.54 61.126 70.4377 6599.63 5938.27 93103100.0
710 -0.00095 0.000219305 -446.402 1313.11 59.9679 69.7192 7005.39 6412.44 91985900.0
709 -0.00085 0.000215549 -454.184 1309.34 58.7718 68.9561 7429.37 6921.65 90833100.0
708 -0.00075 0.000211711 -462.415 1305.22 57.5437 68.148 7867.3 7460.46 89646200.0
707 -0.00065 0.000207803 -471.113 1300.61 56.2819 67.295 8314.04 8027.17 88423000.0
706 -0.00055 0.000203866 -480.208 1295.48 54.9977 66.4026 8764.39 8612.42 87171700.0
705 -0.00045 0.000199885 -489.77 1289.83 53.6887 65.4658 9222.21 9224.07 85897100.0
704 -0.00035 0.000195879 -499.79 1283.51 52.3548 64.4832 9678.61 9854.8 84592100.0
703 -0.00025 0.000191846 -510.298 1276.63 51.0023 63.4556 10140.5 10510.9 83274400.0
702 -0.00015 0.00018783 -521.207 1269.14 49.6412 62.3868 10597.5 11175.5 81939100.0
701 -5e-05 0.000183838 -532.529 1260.92 48.2716 61.2784 11047.1 11848.4 80593900.0
700 5e-05 0.000179862 -544.297 1252.03 46.8947 60.1272 11489.1 12527.7 79241100.0
699 0.00015 0.000175937 -556.442 1242.4 45.5185 58.9386 11918.2 13205.9 77881700.0
698 0.00025 0.000172076 -568.925 1231.91 44.1439 57.7182 12326.3 13874.2 76519400.0
697 0.00035 0.00016828 -581.761 1220.66 42.7755 56.4629 12716.1 14531.7 75159500.0
696 0.00045 0.000164561 -594.906 1208.55 41.4156 55.1772 13080.2 15170.5 73799100.0
695 0.00055 0.000160937 -608.305 1195.57 40.0683 53.8673 13414.8 15783.2 72442600.0
694 0.00065 0.000157413 -621.921 1181.91 38.7432 52.5363 13722.5 16362.1 71093600.0
693 0.00075 0.000153984 -635.761 1167.35 37.4322 51.1831 13996.0 16907.2 69748000.0
692 0.00085 0.000150665 -649.779 1151.96 36.1426 49.8137 14234.9 17411.7 68406600.0
691 0.00095 0.000147475 -663.828 1135.84 34.8823 48.4405 14433.2 17862.9 67068200.0
690 0.00105 0.000144391 -678.006 1118.91 33.6438 47.0549 14594.4 18269.5 65733200.0
689 0.00115 0.000141438 -692.157 1101.4 32.4402 45.6718 14716.9 18617.7 64403000.0
688 0.00125 0.0001386 -706.33 1083.19 31.2635 44.2873 14799.0 18913.2 63073700.0
687 0.00135 0.000135893 -720.405 1064.33 30.1191 42.912 14838.1 19147.0 61738600.0
686 0.00145 0.000133301 -734.407 1044.94 29.0065 41.5436 14838.2 19322.4 60401900.0
685 0.00155 0.000130832 -748.271 1025.18 27.9308 40.189 14802.4 19439.1 59065800.0
684 0.00165 0.00012848 -761.964 1004.87 26.8853 38.8514 14724.5 19497.6 57719300.0
683 0.00175 0.00012625 -775.428 984.375 25.8798 37.5361 14614.1 19497.2 56373000.0
682 0.00185 0.000124118 -788.745 963.522 24.9038 36.2349 14469.3 19443.9 55018500.0
681 0.00195 0.000122104 -801.751 942.451 23.9639 34.9638 14290.2 19336.3 53655500.0
680 0.00205 0.00012019 -814.52 921.313 23.0592 33.7161 14083.8 19178.3 52288400.0
679 0.00215 0.000118375 -827.008 900.081 22.1877 32.4962 13850.3 18974.4 50918300.0
678 0.00225 0.000116668 -839.109 879.017 21.356 31.3142 13594.0 18726.6 49548500.0
677 0.00235 0.000115054 -850.865 858.034 20.5578 30.1654 13315.5 18439.0 48176200.0
676 0.00245 0.000113533 -862.284 837.136 19.7919 29.05 13016.6 18116.0 46800900.0
675 0.00255 0.000112096 -873.327 816.614 19.0623 27.9704 12705.5 17761.2 45434300.0
674 0.00265 0.000110736 -884.054 796.202 18.3605 26.9229 12377.8 17379.3 44067900.0
673 0.00275 0.000109456 -894.389 776.249 17.6934 25.9131 12042.5 16973.9 42715000.0
672 0.00285 0.000108255 -904.321 756.54 17.0549 24.9423 11694.0 16547.7 41361800.0
671 0.00295 0.000107118 -913.914 737.26 16.4457 24.0049 11340.5 16105.0 40022800.0
670 0.00305 0.00010605 -923.12 718.391 15.8651 23.1057 10982.1 15650.5 38697700.0
669 0.00315 0.000105042 -931.978 700.081 15.3137 22.24 10624.7 15185.7 37395600.0
668 0.00325 0.000104091 -940.484 682.141 14.7862 21.4087 10262.9 14713.6 36104400.0
667 0.00335 0.000103204 -948.569 664.9 14.2897 20.6186 9906.89 14239.2 34843600.0
666 0.00345 0.000102368 -956.316 648.114 13.8161 19.8613 9551.58 13762.6 33602100.0
665 0.00355 0.00010158 -963.741 631.864 13.3659 19.1362 9201.03 13287.6 32388700.0
664 0.00365 0.000100833 -970.881 616.049 12.9356 18.438 8852.87 12812.4 31194500.0
663 0.00375 0.000100129 -977.695 600.781 12.5269 17.772 8510.13 12341.8 30027600.0
662 0.00385 9.94692e-05 -984.186 586.047 12.1392 17.1379 8174.08 11878.6 28890400.0
661 0.00395 9.88454e-05 -990.393 571.854 11.7709 16.5312 7845.65 11421.1 27783000.0
660 0.00405 9.82583e-05 -996.308 558.188 11.4214 15.953 7524.77 10972.3 26705400.0
659 0.00415 9.77101e-05 -1001.9 545.124 11.0919 15.4064 7213.94 10535.0 25663200.0
658 0.00425 9.71886e-05 -1007.28 532.492 10.777 14.8812 6910.12 10106.1 24649000.0
657 0.00435 9.67025e-05 -1012.34 520.435 10.4803 14.3866 6616.25 9690.51 23669200.0
656 0.00445 9.62452e-05 -1017.16 508.918 10.1999 13.9157 6333.09 9286.37 22723800.0
655 0.00455 9.58085e-05 -1021.78 497.766 9.93114 13.4633 6056.46 8891.8 21805600.0
654 0.00465 9.54032e-05 -1026.13 487.205 9.67931 13.0385 5791.66 8512.24 20923600.0
653 0.00475 9.50153e-05 -1030.31 476.98 9.43764 12.6298 5533.52 8142.18 20067800.0
652 0.00485 9.46529e-05 -1034.26 467.314 9.21112 12.2443 5287.63 7786.28 19249400.0