ITEM: TIMESTEP
20000
ITEM: NUMBER OF CELLS
1000
ITEM: BOX BOUNDS os pp pp
-0.07 0.03
-0.001 0.001
-0.001 0.001
ITEM: CELLS id f_1[1] f_1[2] f_1[3] f_1[4] f_1[5] f_1[6] f_1[7] f_1[8] f_1[9] 
1 -0.06995 8.83423e-05 1108.14 273.107 5.02425 5.02313 -0.140619 -0.339923 1.42685e+06 
2 -0.06985 8.83426e-05 1108.13 273.114 5.0244 5.02362 -0.326859 -0.713646 1.4274e+06 
3 -0.06975 8.83429e-05 1108.13 273.116 5.02445 5.02379 -0.402522 -0.867895 1.42761e+06 
4 -0.06965 8.83431e-05 1108.13 273.116 5.02446 5.02376 -0.432947 -0.859315 1.42766e+06 
5 -0.06955 8.83427e-05 1108.13 273.117 5.02445 5.02391 -0.423049 -0.867256 1.42773e+06 
6 -0.06945 8.83431e-05 1108.13 273.117 5.02448 5.02392 -0.41641 -0.863551 1.4277e+06 
7 -0.06935 8.83429e-05 1108.13 273.116 5.02446 5.02387 -0.38143 -0.800953 1.42765e+06 
8 -0.06925 8.83425e-05 1108.13 273.114 5.02439 5.02383 -0.367205 -0.821154 1.42763e+06 
9 -0.06915 8.83424e-05 1108.13 273.115 5.0244 5.02392 -0.408973 -0.910914 1.42775e+06 
10 -0.06905 8.83438e-05 1108.13 273.115 5.02449 5.02393 -0.371792 -0.836997 1.42774e+06 
11 -0.06895 8.8342e-05 1108.13 273.114 5.02437 5.02372 -0.385996 -0.821277 1.42766e+06 
12 -0.06885 8.83431e-05 1108.13 273.118 5.0245 5.02388 -0.459659 -0.910191 1.42786e+06 
13 -0.06875 8.83427e-05 1108.13 273.115 5.02442 5.02379 -0.419567 -0.838058 1.42782e+06 
14 -0.06865 8.83428e-05 1108.13 273.118 5.02448 5.02384 -0.454233 -0.906816 1.42788e+06 
15 -0.06855 8.83423e-05 1108.13 273.116 5.02442 5.0239 -0.46017 -0.948233 1.42798e+06 
16 -0.06845 8.83429e-05 1108.13 273.113 5.0244 5.02365 -0.37715 -0.741297 1.42767e+06 
17 -0.06835 8.83426e-05 1108.13 273.114 5.02439 5.02376 -0.347885 -0.749333 1.42776e+06 
18 -0.06825 8.83427e-05 1108.13 273.111 5.02434 5.02366 -0.326856 -0.70088 1.42769e+06 
19 -0.06815 8.83428e-05 1108.13 273.114 5.02441 5.02385 -0.376835 -0.766074 1.42785e+06 
20 -0.06805 8.83428e-05 1108.13 273.117 5.02447 5.02391 -0.434609 -0.865679 1.42802e+06 
21 -0.06795 8.83434e-05 1108.13 273.116 5.02447 5.02393 -0.414726 -0.802692 1.42797e+06 
22 -0.06785 8.83422e-05 1108.13 273.113 5.02436 5.02362 -0.361979 -0.705549 1.4278e+06 
23 -0.06775 8.8343e-05 1108.13 273.115 5.02443 5.02371 -0.384734 -0.755532 1.42789e+06 
24 -0.06765 8.8343e-05 1108.13 273.111 5.02437 5.02361 -0.286716 -0.561442 1.42769e+06 
25 -0.06755 8.8343e-05 1108.13 273.11 5.02434 5.02351 -0.26612 -0.528265 1.42765e+06 
26 -0.06745 8.83428e-05 1108.13 273.112 5.02437 5.02364 -0.285337 -0.570373 1.42779e+06 
27 -0.06735 8.8342e-05 1108.13 273.108 5.02426 5.02347 -0.262826 -0.545685 1.42769e+06 
28 -0.06725 8.83425e-05 1108.13 273.11 5.02431 5.02346 -0.277506 -0.556534 1.42774e+06 
29 -0.06715 8.83426e-05 1108.14 273.109 5.0243 5.02343 -0.239604 -0.509656 1.42768e+06 
30 -0.06705 8.83424e-05 1108.13 273.112 5.02435 5.02351 -0.283599 -0.596514 1.42785e+06 
31 -0.06695 8.83424e-05 1108.14 273.11 5.02431 5.02326 -0.217804 -0.437404 1.42762e+06 
32 -0.06685 8.83428e-05 1108.14 273.108 5.0243 5.02334 -0.228457 -0.461806 1.42765e+06 
34 -0.06665 8.83431e-05 1108.13 273.112 5.02439 5.0237 -0.34927 -0.650059 1.42801e+06 
33 -0.06675 8.83427e-05 1108.13 273.112 5.02436 5.02356 -0.262935 -0.504283 1.42777e+06 
35 -0.06655 8.83429e-05 1108.13 273.116 5.02444 5.0237 -0.390522 -0.681395 1.42808e+06 
36 -0.06645 8.83429e-05 1108.13 273.112 5.02437 5.02353 -0.323686 -0.536394 1.4279e+06 
37 -0.06635 8.83426e-05 1108.13 273.112 5.02436 5.02353 -0.305839 -0.504021 1.42787e+06 
38 -0.06625 8.83425e-05 1108.13 273.109 5.0243 5.02348 -0.26598 -0.419519 1.42786e+06 
39 -0.06615 8.83423e-05 1108.13 273.111 5.02432 5.02351 -0.243871 -0.425004 1.42781e+06 
40 -0.06605 8.83435e-05 1108.14 273.108 5.02434 5.02352 -0.222486 -0.388678 1.42777e+06 
41 -0.06595 8.83418e-05 1108.13 273.108 5.02424 5.02338 -0.227283 -0.382295 1.42769e+06 
42 -0.06585 8.83423e-05 1108.14 273.105 5.02422 5.02341 -0.179642 -0.301337 1.42765e+06 
43 -0.06575 8.83421e-05 1108.14 273.108 5.02426 5.02342 -0.229486 -0.352991 1.42775e+06 
44 -0.06565 8.83422e-05 1108.13 273.108 5.02427 5.02345 -0.242995 -0.370825 1.42776e+06 
45 -0.06555 8.83419e-05 1108.13 273.11 5.02429 5.02351 -0.245961 -0.370126 1.42784e+06 
46 -0.06545 8.83432e-05 1108.13 273.109 5.02433 5.02354 -0.231272 -0.332267 1.42781e+06 
47 -0.06535 8.83421e-05 1108.14 273.108 5.02427 5.02329 -0.207606 -0.291406 1.42772e+06 
48 -0.06525 8.83413e-05 1108.14 273.106 5.02418 5.02321 -0.190559 -0.241041 1.42765e+06 
49 -0.06515 8.83423e-05 1108.14 273.109 5.02428 5.02341 -0.218599 -0.311378 1.42782e+06 
50 -0.06505 8.83421e-05 1108.13 273.11 5.02429 5.02344 -0.278621 -0.418976 1.4279e+06 
51 -0.06495 8.8343e-05 1108.13 273.111 5.02437 5.02369 -0.308483 -0.484224 1.42804e+06 
52 -0.06485 8.83426e-05 1108.13 273.11 5.02433 5.02349 -0.319453 -0.492295 1.4279e+06 
53 -0.06475 8.83428e-05 1108.13 273.112 5.02437 5.02359 -0.306368 -0.439955 1.42797e+06 
54 -0.06465 8.83428e-05 1108.13 273.111 5.02435 5.02351 -0.270141 -0.397712 1.42788e+06 
55 -0.06455 8.83423e-05 1108.13 273.112 5.02433 5.02351 -0.336298 -0.443869 1.42795e+06 
56 -0.06445 8.83437e-05 1108.13 273.11 5.02438 5.02352 -0.33131 -0.473919 1.42795e+06 
57 -0.06435 8.83426e-05 1108.13 273.113 5.02438 5.0236 -0.332823 -0.446041 1.42797e+06 
58 -0.06425 8.83426e-05 1108.13 273.113 5.02439 5.02373 -0.359008 -0.517849 1.42808e+06 
59 -0.06415 8.83428e-05 1108.13 273.111 5.02436 5.02354 -0.31963 -0.397908 1.42796e+06 
60 -0.06405 8.83427e-05 1108.13 273.11 5.02433 5.02351 -0.2947 -0.330092 1.42788e+06 
61 -0.06395 8.83427e-05 1108.13 273.111 5.02434 5.02343 -0.254804 -0.254933 1.42782e+06 
62 -0.06385 8.83427e-05 1108.13 273.111 5.02435 5.02359 -0.265495 -0.289265 1.4279e+06 
63 -0.06375 8.83424e-05 1108.13 273.108 5.02426 5.02355 -0.244146 -0.232092 1.42784e+06 
67 -0.06335 8.83438e-05 1108.13 273.113 5.02444 5.02393 -0.35376 -0.507315 1.42816e+06 
65 -0.06355 8.83438e-05 1108.13 273.115 5.02448 5.02396 -0.391802 -0.568941 1.42821e+06 
66 -0.06345 8.83431e-05 1108.13 273.115 5.02444 5.024 -0.384434 -0.562932 1.42823e+06 
68 -0.06325 8.8343e-05 1108.13 273.111 5.02436 5.02394 -0.345744 -0.517888 1.42813e+06 
69 -0.06315 8.83434e-05 1108.12 273.116 5.02448 5.02412 -0.391691 -0.628205 1.42829e+06 
70 -0.06305 8.83441e-05 1108.13 273.113 5.02446 5.0242 -0.404591 -0.616703 1.42836e+06 
71 -0.06295 8.8344e-05 1108.13 273.115 5.0245 5.0241 -0.397304 -0.610007 1.42834e+06 
72 -0.06285 8.83435e-05 1108.13 273.112 5.02442 5.02409 -0.381702 -0.622535 1.42832e+06 
73 -0.06275 8.83439e-05 1108.12 273.114 5.02447 5.02426 -0.437363 -0.753446 1.42847e+06 
74 -0.06265 8.83438e-05 1108.13 273.117 5.02452 5.02424 -0.441003 -0.738057 1.42853e+06 
75 -0.06255 8.83434e-05 1108.12 273.113 5.02443 5.02401 -0.367746 -0.642645 1.42837e+06 
76 -0.06245 8.83434e-05 1108.13 273.112 5.02441 5.02398 -0.393721 -0.63201 1.42832e+06 
77 -0.06235 8.83428e-05 1108.13 273.111 5.02435 5.02377 -0.318828 -0.485679 1.42819e+06 
78 -0.06225 8.83433e-05 1108.13 273.111 5.02438 5.02391 -0.335499 -0.553461 1.42831e+06 
79 -0.06215 8.8343e-05 1108.13 273.111 5.02436 5.02391 -0.326613 -0.496116 1.4283e+06 
80 -0.06205 8.83427e-05 1108.13 273.109 5.02432 5.02376 -0.269543 -0.389762 1.42819e+06 
81 -0.06195 8.83429e-05 1108.13 273.108 5.02431 5.02385 -0.304742 -0.532845 1.42831e+06 
82 -0.06185 8.8343e-05 1108.13 273.111 5.02436 5.02395 -0.326625 -0.551673 1.42837e+06 
83 -0.06175 8.83436e-05 1108.13 273.111 5.0244 5.02407 -0.32785 -0.569554 1.42843e+06 
84 -0.06165 8.83426e-05 1108.13 273.11 5.02432 5.02391 -0.269371 -0.453024 1.42833e+06 
85 -0.06155 8.83423e-05 1108.13 273.106 5.02424 5.02372 -0.247554 -0.446986 1.42824e+06 
86 -0.06145 8.83429e-05 1108.13 273.106 5.02426 5.02375 -0.216767 -0.383043 1.42823e+06 
87 -0.06135 8.83419e-05 1108.13 273.107 5.02422 5.02363 -0.200892 -0.353238 1.4282e+06 
88 -0.06125 8.83428e-05 1108.13 273.107 5.02429 5.02375 -0.216351 -0.397762 1.42833e+06 
89 -0.06115 8.83423e-05 1108.13 273.104 5.02419 5.0236 -0.176554 -0.3257 1.42819e+06 
90 -0.06105 8.83422e-05 1108.13 273.104 5.02418 5.02353 -0.172568 -0.278839 1.42814e+06 
91 -0.06095 8.83429e-05 1108.13 273.106 5.02427 5.02354 -0.149622 -0.235257 1.42808e+06 
92 -0.06085 8.83423e-05 1108.13 273.105 5.02422 5.02358 -0.187101 -0.267682 1.4281e+06 
93 -0.06075 8.83427e-05 1108.13 273.103 5.0242 5.02353 -0.139622 -0.149842 1.42797e+06 
94 -0.06065 8.83431e-05 1108.13 273.106 5.02428 5.02369 -0.136619 -0.217306 1.42812e+06 
64 -0.06365 8.83433e-05 1108.13 273.109 5.02435 5.02362 -0.264727 -0.28181 1.4279e+06 
100 -0.06005 8.83423e-05 1108.13 273.107 5.02425 5.02346 -0.234276 -0.295625 1.42822e+06 
97 -0.06035 8.83422e-05 1108.13 273.106 5.02423 5.02369 -0.191461 -0.242054 1.42823e+06 
98 -0.06025 8.83431e-05 1108.13 273.107 5.02429 5.02361 -0.200171 -0.268212 1.42824e+06 
99 -0.06015 8.83431e-05 1108.13 273.105 5.02426 5.02361 -0.239099 -0.289315 1.42824e+06 
101 -0.05995 8.83427e-05 1108.13 273.105 5.02424 5.02341 -0.201731 -0.207809 1.42815e+06 
102 -0.05985 8.83425e-05 1108.14 273.103 5.0242 5.02329 -0.156261 -0.0932881 1.42802e+06 
103 -0.05975 8.83425e-05 1108.13 273.102 5.02418 5.02328 -0.125363 -0.0791866 1.42801e+06 
104 -0.05965 8.83426e-05 1108.14 273.103 5.02419 5.02333 -0.134637 -0.120406 1.42803e+06 
105 -0.05955 8.83425e-05 1108.13 273.102 5.02417 5.02334 -0.149985 -0.15192 1.42807e+06 
106 -0.05945 8.83426e-05 1108.14 273.104 5.02421 5.02348 -0.196228 -0.239061 1.42817e+06 
107 -0.05935 8.83428e-05 1108.13 273.102 5.02419 5.02347 -0.126083 -0.159802 1.42806e+06 
108 -0.05925 8.83428e-05 1108.13 273.1 5.02415 5.02352 -0.132075 -0.176925 1.42809e+06 
109 -0.05915 8.83426e-05 1108.13 273.1 5.02414 5.02358 -0.149471 -0.226231 1.42817e+06 
110 -0.05905 8.83428e-05 1108.13 273.104 5.02422 5.02381 -0.139819 -0.270806 1.42822e+06 
111 -0.05895 8.83431e-05 1108.13 273.101 5.02419 5.02369 -0.0353638 -0.0917306 1.42803e+06 
112 -0.05885 8.83433e-05 1108.13 273.099 5.02416 5.02364 -0.00564081 -0.0175987 1.42796e+06 
113 -0.05875 8.83424e-05 1108.13 273.1 5.02413 5.02366 -0.025584 -0.0728541 1.428e+06 
114 -0.05865 8.83435e-05 1108.13 273.099 5.02417 5.02372 -0.0257489 -0.021191 1.42799e+06 
115 -0.05855 8.83434e-05 1108.13 273.101 5.0242 5.02386 -0.0665395 -0.0810382 1.42816e+06 
116 -0.05845 8.83428e-05 1108.13 273.105 5.02424 5.02401 -0.160432 -0.281471 1.42838e+06 
117 -0.05835 8.83428e-05 1108.13 273.102 5.02419 5.02394 -0.132749 -0.205114 1.42828e+06 
118 -0.05825 8.8343e-05 1108.13 273.102 5.02419 5.02394 -0.0676328 -0.108728 1.42821e+06 
119 -0.05815 8.83427e-05 1108.13 273.099 5.02413 5.0239 -0.08261 -0.0956438 1.4282e+06 
120 -0.05805 8.83435e-05 1108.13 273.102 5.02423 5.02398 -0.0558318 -0.0735429 1.4282e+06 
121 -0.05795 8.83425e-05 1108.13 273.101 5.02415 5.02391 -0.0339475 -0.0461384 1.42817e+06 
122 -0.05785 8.83434e-05 1108.13 273.101 5.0242 5.02395 -0.0763602 -0.114955 1.42821e+06 
123 -0.05775 8.83431e-05 1108.13 273.102 5.02421 5.02401 -0.091539 -0.144567 1.4282e+06 
124 -0.05765 8.83428e-05 1108.13 273.103 5.0242 5.02404 -0.13153 -0.214084 1.4283e+06 
125 -0.05755 8.83428e-05 1108.13 273.105 5.02425 5.024 -0.15156 -0.270248 1.42833e+06 
95 -0.06055 8.83426e-05 1108.13 273.106 5.02425 5.02374 -0.181524 -0.260001 1.42815e+06 
96 -0.06045 8.83435e-05 1108.13 273.103 5.02425 5.02368 -0.135633 -0.142634 1.42809e+06 
133 -0.05675 8.83423e-05 1108.13 273.107 5.02425 5.024 -0.263786 -0.374059 1.42846e+06 
129 -0.05715 8.83424e-05 1108.13 273.107 5.02425 5.02404 -0.167538 -0.232468 1.42837e+06 
130 -0.05705 8.83428e-05 1108.13 273.103 5.02421 5.02395 -0.112875 -0.119912 1.42827e+06 
131 -0.05695 8.83422e-05 1108.12 273.106 5.02422 5.02398 -0.19177 -0.260319 1.42837e+06 
132 -0.05685 8.83437e-05 1108.13 273.106 5.02432 5.02404 -0.223898 -0.321382 1.42843e+06 
134 -0.05665 8.83429e-05 1108.13 273.106 5.02427 5.02391 -0.186399 -0.215709 1.42834e+06 
135 -0.05655 8.83419e-05 1108.13 273.105 5.0242 5.02385 -0.142807 -0.108905 1.42821e+06 
136 -0.05645 8.83427e-05 1108.13 273.104 5.02422 5.02382 -0.115081 -0.0321036 1.42817e+06 
137 -0.05635 8.83423e-05 1108.13 273.102 5.02417 5.02371 -0.156984 -0.1144 1.42821e+06 
138 -0.05625 8.83429e-05 1108.13 273.105 5.02425 5.0238 -0.141014 -0.129522 1.42821e+06 
139 -0.05615 8.83432e-05 1108.13 273.106 5.02429 5.02383 -0.146202 -0.148422 1.42826e+06 
140 -0.05605 8.8342e-05 1108.13 273.104 5.02418 5.02368 -0.130055 -0.100449 1.42813e+06 
141 -0.05595 8.83431e-05 1108.13 273.102 5.02419 5.02356 -0.0850923 -0.0228742 1.42809e+06 
142 -0.05585 8.83428e-05 1108.13 273.1 5.02415 5.02351 -0.077611 -0.0259868 1.42808e+06 
143 -0.05575 8.83422e-05 1108.13 273.101 5.02413 5.02353 -0.0585958 -0.000448596 1.4281e+06 
144 -0.05565 8.83427e-05 1108.13 273.102 5.02419 5.02372 -0.106056 -0.109259 1.4282e+06 
145 -0.05555 8.83433e-05 1108.13 273.102 5.02422 5.02376 -0.115323 -0.129749 1.4283e+06 
146 -0.05545 8.83426e-05 1108.13 273.101 5.02416 5.02355 -0.0781233 -0.0485284 1.42814e+06 
147 -0.05535 8.83426e-05 1108.13 273.102 5.02418 5.02359 -0.102276 -0.110846 1.42821e+06 
148 -0.05525 8.83421e-05 1108.13 273.102 5.02414 5.02348 -0.0654663 -0.0626486 1.42816e+06 
149 -0.05515 8.83422e-05 1108.13 273.1 5.02412 5.0235 -0.0618698 -0.0316487 1.42812e+06 
150 -0.05505 8.83428e-05 1108.13 273.101 5.02417 5.02349 -0.0506599 0.019336 1.42813e+06 
151 -0.05495 8.83426e-05 1108.13 273.101 5.02415 5.02356 -0.0708303 -0.010238 1.42817e+06 
152 -0.05485 8.83427e-05 1108.13 273.101 5.02417 5.0236 -0.0968192 -0.0257174 1.42824e+06 
153 -0.05475 8.83426e-05 1108.13 273.1 5.02413 5.02343 -0.0255402 0.116767 1.42809e+06 
154 -0.05465 8.83423e-05 1108.13 273.1 5.02412 5.02339 -0.00760451 0.116158 1.42801e+06 
155 -0.05455 8.83437e-05 1108.13 273.1 5.02419 5.0236 -0.0508726 0.094836 1.42813e+06 
156 -0.05445 8.83421e-05 1108.13 273.102 5.02415 5.02358 -0.0921205 -0.00571279 1.42823e+06 
126 -0.05745 8.83427e-05 1108.13 273.105 5.02423 5.02399 -0.165317 -0.2757 1.42836e+06 
127 -0.05735 8.8343e-05 1108.13 273.104 5.02424 5.02401 -0.156766 -0.24132 1.42835e+06 
128 -0.05725 8.83434e-05 1108.13 273.102 5.02421 5.02402 -0.123454 -0.165384 1.42831e+06 
166 -0.05345 8.83431e-05 1108.13 273.105 5.02426 5.02387 -0.190991 -0.188296 1.42844e+06 
161 -0.05395 8.8343e-05 1108.13 273.107 5.02429 5.02388 -0.212968 -0.255395 1.42857e+06 
162 -0.05385 8.83425e-05 1108.13 273.105 5.02423 5.02369 -0.166914 -0.173759 1.4284e+06 
163 -0.05375 8.83429e-05 1108.13 273.105 5.02424 5.02377 -0.18131 -0.165736 1.42835e+06 
164 -0.05365 8.83433e-05 1108.13 273.107 5.02431 5.02393 -0.245557 -0.294375 1.42856e+06 
165 -0.05355 8.83433e-05 1108.13 273.107 5.0243 5.02391 -0.231703 -0.230858 1.4285e+06 
167 -0.05335 8.83434e-05 1108.13 273.108 5.02433 5.02395 -0.223896 -0.277386 1.42856e+06 
168 -0.05325 8.83424e-05 1108.13 273.107 5.02426 5.02383 -0.216986 -0.255191 1.42851e+06 
169 -0.05315 8.83429e-05 1108.13 273.103 5.02421 5.02374 -0.157811 -0.149526 1.42837e+06 
170 -0.05305 8.83427e-05 1108.13 273.103 5.0242 5.02382 -0.1652 -0.176439 1.42841e+06 
171 -0.05295 8.83425e-05 1108.13 273.108 5.02429 5.02398 -0.267422 -0.372522 1.4286e+06 
172 -0.05285 8.83428e-05 1108.13 273.106 5.02426 5.02385 -0.225772 -0.249033 1.42846e+06 
173 -0.05275 8.83424e-05 1108.13 273.106 5.02423 5.02389 -0.233362 -0.286942 1.42847e+06 
174 -0.05265 8.83433e-05 1108.13 273.109 5.02435 5.02417 -0.290075 -0.355862 1.4287e+06 
175 -0.05255 8.83435e-05 1108.12 273.111 5.02439 5.0242 -0.342865 -0.435875 1.42881e+06 
176 -0.05245 8.83437e-05 1108.12 273.111 5.02441 5.0243 -0.350217 -0.470175 1.42881e+06 
177 -0.05235 8.83429e-05 1108.12 273.111 5.02436 5.02423 -0.350636 -0.474649 1.42882e+06 
178 -0.05225 8.83432e-05 1108.12 273.112 5.02438 5.02426 -0.352729 -0.51946 1.42889e+06 
179 -0.05215 8.83432e-05 1108.13 273.112 5.02439 5.02429 -0.381748 -0.643682 1.42894e+06 
180 -0.05205 8.83438e-05 1108.12 273.11 5.02438 5.02433 -0.369836 -0.596991 1.42889e+06 
181 -0.05195 8.83438e-05 1108.12 273.11 5.0244 5.02439 -0.374934 -0.621802 1.42894e+06 
182 -0.05185 8.83432e-05 1108.12 273.112 5.0244 5.02437 -0.324921 -0.546048 1.4289e+06 
183 -0.05175 8.83434e-05 1108.12 273.112 5.02441 5.02448 -0.36605 -0.62071 1.42895e+06 
184 -0.05165 8.83442e-05 1108.12 273.111 5.02443 5.02453 -0.37405 -0.641166 1.42899e+06 
185 -0.05155 8.83436e-05 1108.12 273.111 5.0244 5.02447 -0.367092 -0.627564 1.42898e+06 
186 -0.05145 8.8343e-05 1108.12 273.111 5.02437 5.02428 -0.317478 -0.528542 1.42881e+06 
187 -0.05135 8.83435e-05 1108.12 273.11 5.02438 5.02435 -0.351626 -0.573722 1.4289e+06 
188 -0.05125 8.83436e-05 1108.12 273.111 5.0244 5.02429 -0.308196 -0.557369 1.42882e+06 
157 -0.05435 8.8343e-05 1108.13 273.102 5.02419 5.02351 -0.071434 0.0309888 1.42817e+06 
158 -0.05425 8.83426e-05 1108.13 273.104 5.02421 5.02374 -0.176088 -0.179947 1.42843e+06 
159 -0.05415 8.83425e-05 1108.13 273.107 5.02426 5.02378 -0.203624 -0.200131 1.42848e+06 
160 -0.05405 8.83426e-05 1108.13 273.105 5.02424 5.02365 -0.180333 -0.182786 1.4284e+06 
199 -0.05015 8.83426e-05 1108.13 273.106 5.02425 5.02398 -0.179419 -0.302714 1.42861e+06 
193 -0.05075 8.8343e-05 1108.13 273.103 5.02422 5.02382 -0.112769 -0.125875 1.42841e+06 
194 -0.05065 8.83435e-05 1108.13 273.104 5.02425 5.02384 -0.100022 -0.0971068 1.42841e+06 
195 -0.05055 8.83432e-05 1108.13 273.103 5.02424 5.02372 -0.0887757 -0.0772909 1.42835e+06 
196 -0.05045 8.83433e-05 1108.13 273.105 5.02427 5.0239 -0.190497 -0.298367 1.42858e+06 
197 -0.05035 8.83428e-05 1108.13 273.107 5.02427 5.02407 -0.241503 -0.406653 1.42872e+06 
198 -0.05025 8.83437e-05 1108.13 273.105 5.0243 5.02403 -0.187839 -0.362743 1.42863e+06 
200 -0.05005 8.8343e-05 1108.13 273.106 5.02428 5.02406 -0.182583 -0.339091 1.42863e+06 
201 -0.04995 8.83435e-05 1108.12 273.105 5.02429 5.02415 -0.180761 -0.343875 1.42867e+06 
202 -0.04985 8.83432e-05 1108.13 273.104 5.02426 5.02402 -0.176205 -0.330683 1.42858e+06 
203 -0.04975 8.83427e-05 1108.13 273.106 5.02425 5.02389 -0.102573 -0.131505 1.42848e+06 
204 -0.04965 8.83433e-05 1108.13 273.104 5.02426 5.02396 -0.141795 -0.167005 1.42852e+06 
205 -0.04955 8.83432e-05 1108.12 273.105 5.02426 5.02404 -0.178628 -0.245386 1.42861e+06 
206 -0.04945 8.83429e-05 1108.13 273.103 5.02421 5.02388 -0.147168 -0.178224 1.42845e+06 
207 -0.04935 8.83426e-05 1108.13 273.102 5.02418 5.02388 -0.146818 -0.181064 1.42847e+06 
208 -0.04925 8.83434e-05 1108.13 273.107 5.02432 5.02413 -0.152088 -0.273446 1.42861e+06 
209 -0.04915 8.83433e-05 1108.12 273.105 5.02428 5.02401 -0.149094 -0.271975 1.42854e+06 
210 -0.04905 8.83431e-05 1108.12 273.103 5.02423 5.0241 -0.167677 -0.301625 1.42862e+06 
211 -0.04895 8.83427e-05 1108.13 273.106 5.02425 5.02403 -0.0954997 -0.181872 1.42852e+06 
212 -0.04885 8.83431e-05 1108.13 273.105 5.02426 5.02403 -0.165882 -0.287107 1.42864e+06 
213 -0.04875 8.83433e-05 1108.13 273.108 5.02432 5.02418 -0.180956 -0.282943 1.42875e+06 
214 -0.04865 8.83429e-05 1108.13 273.102 5.02419 5.02388 -0.124231 -0.192923 1.42847e+06 
215 -0.04855 8.83424e-05 1108.13 273.103 5.02419 5.02372 -0.0865159 -0.0822849 1.42839e+06 
216 -0.04845 8.83431e-05 1108.13 273.105 5.02425 5.02389 -0.192807 -0.269141 1.42864e+06 
217 -0.04835 8.83431e-05 1108.13 273.106 5.02427 5.02388 -0.179299 -0.251131 1.42867e+06 
218 -0.04825 8.83433e-05 1108.13 273.107 5.02431 5.02402 -0.223532 -0.341649 1.42874e+06 
219 -0.04815 8.83432e-05 1108.12 273.105 5.02426 5.02396 -0.182267 -0.256244 1.42867e+06 
189 -0.05115 8.83434e-05 1108.13 273.111 5.02439 5.02429 -0.336905 -0.565306 1.42883e+06 
190 -0.05105 8.83432e-05 1108.12 273.109 5.02434 5.02417 -0.287462 -0.475874 1.42875e+06 
191 -0.05095 8.83427e-05 1108.12 273.107 5.02426 5.02407 -0.258043 -0.433015 1.42865e+06 
192 -0.05085 8.83436e-05 1108.13 273.108 5.02434 5.02404 -0.175631 -0.270463 1.42856e+06 
232 -0.04685 8.83425e-05 1108.13 273.103 5.02418 5.02341 -0.0646016 -0.100041 1.42828e+06 
225 -0.04755 8.83429e-05 1108.13 273.106 5.02428 5.02395 -0.153413 -0.290833 1.42868e+06 
226 -0.04745 8.83427e-05 1108.13 273.105 5.02424 5.02387 -0.13031 -0.239511 1.42856e+06 
227 -0.04735 8.8343e-05 1108.13 273.102 5.02419 5.0237 -0.0639795 -0.141299 1.42841e+06 
228 -0.04725 8.83436e-05 1108.13 273.103 5.02426 5.02377 -0.0829103 -0.174171 1.42851e+06 
229 -0.04715 8.83431e-05 1108.13 273.105 5.02425 5.02374 -0.0947145 -0.184343 1.42849e+06 
230 -0.04705 8.83431e-05 1108.13 273.102 5.02421 5.02358 -0.0590239 -0.101953 1.4284e+06 
231 -0.04695 8.83427e-05 1108.13 273.104 5.02421 5.02353 -0.115556 -0.156314 1.4284e+06 
233 -0.04675 8.83433e-05 1108.13 273.099 5.02416 5.02341 -0.0107106 0.0144489 1.42819e+06 
234 -0.04665 8.83423e-05 1108.13 273.1 5.02413 5.02341 0.0193715 0.0405531 1.42814e+06 
235 -0.04655 8.83426e-05 1108.13 273.101 5.02416 5.02348 -0.0015431 0.011464 1.42816e+06 
236 -0.04645 8.83427e-05 1108.14 273.098 5.02411 5.0233 0.0381111 0.163501 1.42803e+06 
237 -0.04635 8.83422e-05 1108.13 273.101 5.02414 5.02338 -0.00847797 0.0586466 1.42819e+06 
238 -0.04625 8.83426e-05 1108.13 273.104 5.0242 5.02361 -0.0835891 -0.13107 1.42839e+06 
239 -0.04615 8.83425e-05 1108.13 273.103 5.02419 5.02359 -0.0748877 -0.125861 1.42836e+06 
240 -0.04605 8.83424e-05 1108.13 273.102 5.02417 5.02358 -0.077841 -0.0970524 1.42832e+06 
241 -0.04595 8.83426e-05 1108.13 273.104 5.02422 5.02363 -0.048598 -0.00769457 1.42833e+06 
242 -0.04585 8.83424e-05 1108.13 273.102 5.02416 5.02349 -0.0155675 0.0676218 1.42821e+06 
243 -0.04575 8.83424e-05 1108.13 273.101 5.02414 5.02347 -0.0354099 0.0124566 1.42821e+06 
244 -0.04565 8.83429e-05 1108.13 273.102 5.02419 5.02355 -0.0167428 0.0034858 1.42827e+06 
245 -0.04555 8.83425e-05 1108.13 273.101 5.02416 5.02344 -0.0442985 0.0203673 1.42824e+06 
246 -0.04545 8.8343e-05 1108.13 273.103 5.02422 5.02364 -0.0743961 -0.118117 1.42843e+06 
247 -0.04535 8.83431e-05 1108.13 273.103 5.02423 5.0236 -0.0772904 -0.0863075 1.42836e+06 
248 -0.04525 8.83418e-05 1108.13 273.102 5.02413 5.02351 -0.0564959 -0.030012 1.42831e+06 
249 -0.04515 8.83426e-05 1108.13 273.105 5.02424 5.02367 -0.135435 -0.158064 1.42849e+06 
250 -0.04505 8.83428e-05 1108.13 273.106 5.02426 5.02373 -0.214605 -0.271209 1.42863e+06 
220 -0.04805 8.83429e-05 1108.13 273.102 5.0242 5.02385 -0.149771 -0.152533 1.42857e+06 
221 -0.04795 8.83435e-05 1108.13 273.104 5.02426 5.02392 -0.107262 -0.120622 1.42857e+06 
222 -0.04785 8.83431e-05 1108.13 273.106 5.02427 5.02399 -0.127607 -0.19605 1.42863e+06 
223 -0.04775 8.83433e-05 1108.13 273.105 5.02427 5.02398 -0.181143 -0.300322 1.4287e+06 
224 -0.04765 8.83437e-05 1108.12 273.106 5.02431 5.02404 -0.166392 -0.317454 1.42872e+06 
265 -0.04355 8.83424e-05 1108.13 273.1 5.02413 5.02399 -0.0782418 -0.101389 1.4286e+06 
257 -0.04435 8.83414e-05 1108.13 273.102 5.0241 5.0237 -0.0881329 -0.0465667 1.42844e+06 
258 -0.04425 8.83421e-05 1108.13 273.1 5.0241 5.02365 -0.0506665 0.00940568 1.42836e+06 
259 -0.04415 8.83424e-05 1108.13 273.1 5.02413 5.02364 -0.0597707 -0.0255039 1.42838e+06 
260 -0.04405 8.83427e-05 1108.13 273.103 5.0242 5.02384 -0.0908031 -0.105521 1.42851e+06 
261 -0.04395 8.83418e-05 1108.13 273.099 5.02408 5.02368 -0.0642219 -0.0421229 1.42838e+06 
262 -0.04385 8.83432e-05 1108.13 273.101 5.02419 5.02389 -0.116811 -0.139373 1.4286e+06 
263 -0.04375 8.83424e-05 1108.13 273.105 5.02423 5.02412 -0.138235 -0.220836 1.42875e+06 
264 -0.04365 8.83428e-05 1108.13 273.104 5.02423 5.02414 -0.111444 -0.200812 1.42875e+06 
266 -0.04345 8.83436e-05 1108.13 273.104 5.02427 5.02423 -0.134606 -0.195757 1.42871e+06 
267 -0.04335 8.83428e-05 1108.13 273.106 5.02426 5.02426 -0.143255 -0.190611 1.42877e+06 
268 -0.04325 8.83426e-05 1108.13 273.104 5.02422 5.02414 -0.132262 -0.110018 1.42867e+06 
269 -0.04315 8.83426e-05 1108.13 273.104 5.02421 5.02409 -0.151774 -0.144727 1.42869e+06 
270 -0.04305 8.83437e-05 1108.13 273.106 5.02432 5.02435 -0.169019 -0.220928 1.42881e+06 
271 -0.04295 8.83428e-05 1108.12 273.107 5.02428 5.02436 -0.180934 -0.282491 1.42882e+06 
272 -0.04285 8.83429e-05 1108.12 273.106 5.02427 5.02434 -0.146962 -0.246457 1.42879e+06 
273 -0.04275 8.83433e-05 1108.13 273.106 5.02429 5.02428 -0.158913 -0.239506 1.42877e+06 
274 -0.04265 8.83425e-05 1108.12 273.106 5.02425 5.02433 -0.193604 -0.329953 1.42887e+06 
275 -0.04255 8.8343e-05 1108.12 273.111 5.02437 5.0246 -0.274376 -0.491672 1.42905e+06 
276 -0.04245 8.83439e-05 1108.12 273.11 5.0244 5.02466 -0.236041 -0.438515 1.42906e+06 
277 -0.04235 8.83423e-05 1108.13 273.108 5.02427 5.02446 -0.213952 -0.364367 1.42891e+06 
278 -0.04225 8.83434e-05 1108.12 273.108 5.02433 5.0245 -0.197067 -0.317038 1.4289e+06 
279 -0.04215 8.83429e-05 1108.12 273.108 5.02431 5.02461 -0.200666 -0.329691 1.42893e+06 
280 -0.04205 8.83435e-05 1108.12 273.108 5.02434 5.02463 -0.149046 -0.282341 1.42884e+06 
281 -0.04195 8.8343e-05 1108.12 273.108 5.0243 5.02467 -0.198981 -0.355143 1.42896e+06 
251 -0.04495 8.83422e-05 1108.13 273.107 5.02424 5.0237 -0.125886 -0.115985 1.4285e+06 
252 -0.04485 8.83426e-05 1108.13 273.103 5.0242 5.02361 -0.101151 -0.110349 1.42842e+06 
253 -0.04475 8.83426e-05 1108.13 273.103 5.0242 5.02369 -0.101518 -0.111311 1.42842e+06 
254 -0.04465 8.83416e-05 1108.13 273.102 5.02412 5.02366 -0.0872443 -0.082187 1.42841e+06 
255 -0.04455 8.83421e-05 1108.13 273.102 5.02414 5.02369 -0.112798 -0.115774 1.42846e+06 
256 -0.04445 8.83425e-05 1108.13 273.101 5.02415 5.02372 -0.0271504 0.0563335 1.42836e+06 
298 -0.04025 8.83417e-05 1108.12 273.103 5.02414 5.02422 -0.0752622 -0.171309 1.42867e+06 
289 -0.04115 8.83427e-05 1108.13 273.108 5.02428 5.02436 -0.206268 -0.314833 1.42892e+06 
290 -0.04105 8.83422e-05 1108.13 273.102 5.02415 5.02417 -0.113637 -0.181175 1.42872e+06 
291 -0.04095 8.83421e-05 1108.13 273.102 5.02415 5.02425 -0.0818568 -0.155191 1.42865e+06 
292 -0.04085 8.83421e-05 1108.13 273.104 5.02418 5.02431 -0.0837299 -0.13988 1.42867e+06 
293 -0.04075 8.83425e-05 1108.13 273.101 5.02415 5.02421 -0.0933625 -0.145509 1.42865e+06 
294 -0.04065 8.83426e-05 1108.13 273.104 5.02421 5.02436 -0.107586 -0.188994 1.42878e+06 
295 -0.04055 8.83425e-05 1108.13 273.103 5.02419 5.02426 -0.0423839 -0.103817 1.42868e+06 
296 -0.04045 8.83423e-05 1108.13 273.101 5.02413 5.02419 -0.0400807 -0.108731 1.42863e+06 
297 -0.04035 8.83423e-05 1108.13 273.103 5.02417 5.02419 -0.0558959 -0.114372 1.42862e+06 
299 -0.04015 8.83421e-05 1108.13 273.102 5.02414 5.02429 -0.0694186 -0.136983 1.42866e+06 
300 -0.04005 8.83423e-05 1108.12 273.106 5.02423 5.02443 -0.0872558 -0.174392 1.42879e+06 
301 -0.03995 8.83424e-05 1108.13 273.104 5.02421 5.02442 -0.0916245 -0.190651 1.42879e+06 
302 -0.03985 8.83425e-05 1108.13 273.102 5.02417 5.02429 -0.0767516 -0.131396 1.4287e+06 
303 -0.03975 8.83415e-05 1108.13 273.099 5.02406 5.02413 -0.0237516 -0.0258313 1.42859e+06 
304 -0.03965 8.83419e-05 1108.13 273.099 5.02408 5.02417 -0.0469446 -0.112254 1.42868e+06 
305 -0.03955 8.83423e-05 1108.13 273.101 5.02415 5.02415 -0.024728 -0.0307702 1.42863e+06 
306 -0.03945 8.83427e-05 1108.13 273.102 5.02417 5.0242 -0.0479046 -0.098751 1.42869e+06 
307 -0.03935 8.83416e-05 1108.13 273.099 5.02405 5.02409 -0.00427216 -0.0568156 1.42863e+06 
308 -0.03925 8.83424e-05 1108.13 273.101 5.02415 5.02405 0.0116156 -0.00804219 1.42861e+06 
309 -0.03915 8.8342e-05 1108.13 273.1 5.02412 5.02409 -0.0758177 -0.16765 1.42874e+06 
310 -0.03905 8.83419e-05 1108.13 273.102 5.02413 5.02404 -0.0634645 -0.157846 1.42874e+06 
311 -0.03895 8.8342e-05 1108.13 273.098 5.02407 5.0238 0.0152476 0.0240825 1.42851e+06 
312 -0.03885 8.83414e-05 1108.13 273.101 5.02408 5.02381 0.0120931 0.0172241 1.42851e+06 
313 -0.03875 8.83424e-05 1108.13 273.101 5.02414 5.02397 -0.00367436 -0.0251785 1.42863e+06 
282 -0.04185 8.83432e-05 1108.12 273.105 5.02427 5.02452 -0.126291 -0.249462 1.42882e+06 
283 -0.04175 8.83434e-05 1108.13 273.103 5.02424 5.02446 -0.100496 -0.188637 1.42871e+06 
284 -0.04165 8.83425e-05 1108.12 273.103 5.02419 5.02438 -0.100274 -0.261326 1.42873e+06 
285 -0.04155 8.83435e-05 1108.13 273.103 5.02425 5.02451 -0.0822247 -0.226181 1.42876e+06 
286 -0.04145 8.83433e-05 1108.12 273.104 5.02424 5.02442 -0.113729 -0.277372 1.42881e+06 
287 -0.04135 8.83425e-05 1108.13 273.104 5.02421 5.02436 -0.128267 -0.262152 1.42882e+06 
288 -0.04125 8.8343e-05 1108.13 273.106 5.02427 5.02428 -0.140094 -0.261947 1.4288e+06 
331 -0.03695 8.83418e-05 1108.13 273.1 5.0241 5.02376 -0.00239292 0.074352 1.42856e+06 
321 -0.03795 8.83422e-05 1108.13 273.101 5.02414 5.02398 -0.00065028 0.0383243 1.42857e+06 
322 -0.03785 8.83418e-05 1108.13 273.101 5.02411 5.02386 -0.0222357 0.0176123 1.42854e+06 
323 -0.03775 8.83427e-05 1108.13 273.103 5.02419 5.024 -0.0326939 -0.00235088 1.42864e+06 
324 -0.03765 8.83416e-05 1108.13 273.097 5.02403 5.02362 0.0288465 0.0980313 1.42845e+06 
325 -0.03755 8.83416e-05 1108.13 273.097 5.02404 5.0236 0.0329939 0.145571 1.42839e+06 
326 -0.03745 8.83415e-05 1108.14 273.096 5.024 5.02347 0.100867 0.251342 1.42825e+06 
327 -0.03735 8.83416e-05 1108.13 273.097 5.02403 5.02355 0.101889 0.241401 1.42827e+06 
328 -0.03725 8.83414e-05 1108.14 273.097 5.02401 5.02357 0.12076 0.281777 1.42833e+06 
329 -0.03715 8.83418e-05 1108.13 273.097 5.02405 5.02375 0.0505959 0.138474 1.4285e+06 
330 -0.03705 8.83416e-05 1108.13 273.098 5.02405 5.02371 0.0199959 0.079837 1.42854e+06 
332 -0.03685 8.83419e-05 1108.13 273.1 5.0241 5.02389 -0.0142787 0.030541 1.42862e+06 
333 -0.03675 8.83425e-05 1108.13 273.098 5.0241 5.02386 0.00915349 0.0465719 1.42857e+06 
334 -0.03665 8.83423e-05 1108.13 273.099 5.02411 5.02384 0.0365655 0.125752 1.42845e+06 
335 -0.03655 8.83422e-05 1108.13 273.097 5.02407 5.02396 0.00513323 0.0391758 1.42856e+06 
336 -0.03645 8.83425e-05 1108.13 273.101 5.02416 5.02411 -0.0439731 -0.0858537 1.42868e+06 
337 -0.03635 8.83425e-05 1108.13 273.101 5.02415 5.0241 -0.00890777 -0.0211364 1.42864e+06 
338 -0.03625 8.83426e-05 1108.13 273.102 5.02417 5.02408 0.0154679 0.0411639 1.42857e+06 
339 -0.03615 8.83426e-05 1108.13 273.098 5.02411 5.02397 0.0193123 0.0335024 1.42848e+06 
340 -0.03605 8.83428e-05 1108.13 273.101 5.02417 5.02413 0.0394436 0.0385398 1.42855e+06 