ITEM: TIMESTEP
30000
ITEM: NUMBER OF CELLS
1000
ITEM: BOX BOUNDS os pp pp
-0.07 0.03
-0.001 0.001
-0.001 0.001
ITEM: CELLS id f_1[1] f_1[2] f_1[3] f_1[4] f_1[5] f_1[6] f_1[7] f_1[8] f_1[9] 
1 -0.06995 8.8342e-05 1108.14 273.117 5.02441 5.0234 -0.25721 -0.531008 1.42701e+06 
2 -0.06985 8.83411e-05 1108.14 273.121 5.02443 5.02357 -0.354004 -0.759826 1.42734e+06 
3 -0.06975 8.83426e-05 1108.14 273.122 5.02455 5.02379 -0.398129 -0.834314 1.42752e+06 
4 -0.06965 8.83417e-05 1108.14 273.122 5.02448 5.02367 -0.40451 -0.838132 1.42755e+06 
5 -0.06955 8.83425e-05 1108.14 273.125 5.02459 5.02379 -0.466628 -0.99198 1.4277e+06 
6 -0.06945 8.83422e-05 1108.14 273.124 5.02456 5.0239 -0.486271 -1.0663 1.42776e+06 
7 -0.06935 8.83423e-05 1108.14 273.127 5.02461 5.02404 -0.505506 -1.11109 1.42784e+06 
8 -0.06925 8.83424e-05 1108.13 273.129 5.02465 5.02413 -0.523366 -1.12116 1.42788e+06 
9 -0.06915 8.83426e-05 1108.14 273.127 5.02463 5.02406 -0.518323 -1.11713 1.42786e+06 
10 -0.06905 8.83421e-05 1108.14 273.128 5.02462 5.0241 -0.536764 -1.13595 1.42782e+06 
11 -0.06895 8.83426e-05 1108.13 273.128 5.02465 5.02415 -0.546311 -1.15566 1.42791e+06 
12 -0.06885 8.8342e-05 1108.13 273.129 5.02465 5.02424 -0.572446 -1.22398 1.42797e+06 
13 -0.06875 8.83427e-05 1108.14 273.128 5.02466 5.02418 -0.569205 -1.17954 1.42788e+06 
14 -0.06865 8.83428e-05 1108.14 273.127 5.02465 5.02417 -0.520593 -1.1155 1.42786e+06 
15 -0.06855 8.83423e-05 1108.14 273.125 5.02459 5.02398 -0.48084 -1.06146 1.42778e+06 
16 -0.06845 8.83422e-05 1108.14 273.126 5.0246 5.02393 -0.505845 -1.07306 1.42783e+06 
17 -0.06835 8.83414e-05 1108.14 273.125 5.02453 5.02381 -0.527312 -1.0638 1.42783e+06 
18 -0.06825 8.83425e-05 1108.14 273.125 5.02459 5.02379 -0.504538 -1.02405 1.42781e+06 
19 -0.06815 8.83419e-05 1108.14 273.127 5.02459 5.02385 -0.544592 -1.01667 1.4279e+06 
20 -0.06805 8.83417e-05 1108.14 273.127 5.02459 5.02387 -0.535496 -0.991505 1.42794e+06 
21 -0.06795 8.83421e-05 1108.14 273.129 5.02465 5.02399 -0.558807 -1.03876 1.42807e+06 
22 -0.06785 8.83422e-05 1108.14 273.128 5.02463 5.02401 -0.527751 -0.999747 1.42804e+06 
23 -0.06775 8.83422e-05 1108.14 273.126 5.02461 5.02401 -0.558035 -1.05473 1.42809e+06 
24 -0.06765 8.83425e-05 1108.14 273.127 5.02463 5.02417 -0.542695 -1.03781 1.42817e+06 
25 -0.06755 8.83423e-05 1108.14 273.126 5.02461 5.02411 -0.507156 -0.916883 1.42808e+06 
26 -0.06745 8.83424e-05 1108.14 273.126 5.02461 5.02398 -0.50587 -0.901575 1.42801e+06 
27 -0.06735 8.83425e-05 1108.14 273.124 5.02457 5.02401 -0.505361 -0.892233 1.42799e+06 
28 -0.06725 8.83417e-05 1108.14 273.123 5.02452 5.02398 -0.499433 -0.850657 1.42797e+06 
29 -0.06715 8.83422e-05 1108.14 273.129 5.02464 5.02413 -0.519371 -0.892921 1.4281e+06 
30 -0.06705 8.8342e-05 1108.14 273.124 5.02455 5.024 -0.518259 -0.891033 1.42805e+06 
31 -0.06695 8.83419e-05 1108.14 273.126 5.02457 5.02412 -0.537289 -0.941375 1.42815e+06 
32 -0.06685 8.83424e-05 1108.14 273.125 5.02459 5.02422 -0.51509 -0.879471 1.42817e+06 
34 -0.06665 8.83422e-05 1108.14 273.126 5.02459 5.02419 -0.487885 -0.855011 1.42819e+06 
33 -0.06675 8.83419e-05 1108.14 273.125 5.02455 5.02405 -0.459662 -0.769888 1.42807e+06 
35 -0.06655 8.8342e-05 1108.14 273.124 5.02455 5.02423 -0.488095 -0.871095 1.42824e+06 
36 -0.06645 8.8342e-05 1108.14 273.123 5.02454 5.02408 -0.488649 -0.853957 1.42819e+06 
37 -0.06635 8.83423e-05 1108.14 273.122 5.02453 5.02414 -0.413348 -0.725559 1.42809e+06 
38 -0.06625 8.83415e-05 1108.14 273.124 5.02452 5.02413 -0.428864 -0.736523 1.42813e+06 
39 -0.06615 8.8342e-05 1108.14 273.121 5.02449 5.02398 -0.422728 -0.750944 1.428e+06 
40 -0.06605 8.83418e-05 1108.14 273.121 5.02448 5.02389 -0.355549 -0.647989 1.4279e+06 
41 -0.06595 8.83423e-05 1108.14 273.122 5.02452 5.02393 -0.407387 -0.69367 1.42803e+06 
42 -0.06585 8.83423e-05 1108.14 273.123 5.02454 5.02388 -0.397499 -0.623767 1.42797e+06 
43 -0.06575 8.83423e-05 1108.14 273.123 5.02455 5.02397 -0.421526 -0.683466 1.42809e+06 
44 -0.06565 8.83421e-05 1108.14 273.123 5.02453 5.02383 -0.443833 -0.71101 1.42802e+06 
45 -0.06555 8.83422e-05 1108.14 273.124 5.02455 5.02381 -0.424918 -0.693636 1.42807e+06 
46 -0.06545 8.83411e-05 1108.14 273.12 5.02443 5.02366 -0.397875 -0.66728 1.42791e+06 
47 -0.06535 8.83421e-05 1108.14 273.124 5.02455 5.02391 -0.407405 -0.688954 1.42806e+06 
48 -0.06525 8.8342e-05 1108.14 273.123 5.02452 5.02383 -0.404505 -0.694189 1.42802e+06 
49 -0.06515 8.83418e-05 1108.14 273.12 5.02447 5.02368 -0.401267 -0.628989 1.42799e+06 
50 -0.06505 8.83416e-05 1108.15 273.12 5.02444 5.02352 -0.371444 -0.554775 1.42787e+06 
51 -0.06495 8.83413e-05 1108.14 273.12 5.02443 5.0235 -0.347773 -0.512349 1.42784e+06 
52 -0.06485 8.83414e-05 1108.15 273.119 5.02442 5.02357 -0.341875 -0.513332 1.42788e+06 
53 -0.06475 8.83413e-05 1108.14 273.123 5.02449 5.02379 -0.417727 -0.657829 1.42812e+06 
54 -0.06465 8.83418e-05 1108.14 273.121 5.02448 5.02376 -0.401016 -0.667661 1.42805e+06 
55 -0.06455 8.83415e-05 1108.14 273.12 5.02444 5.02368 -0.354753 -0.612381 1.428e+06 
56 -0.06445 8.83422e-05 1108.14 273.12 5.02449 5.02369 -0.336649 -0.587371 1.42795e+06 
57 -0.06435 8.83412e-05 1108.14 273.121 5.02445 5.02368 -0.376032 -0.649407 1.42803e+06 
58 -0.06425 8.83415e-05 1108.14 273.12 5.02445 5.0237 -0.368762 -0.603575 1.42802e+06 
59 -0.06415 8.83421e-05 1108.14 273.121 5.0245 5.02379 -0.412803 -0.664395 1.42816e+06 
60 -0.06405 8.83413e-05 1108.14 273.121 5.02445 5.02361 -0.360616 -0.518965 1.42802e+06 
61 -0.06395 8.83416e-05 1108.14 273.119 5.02442 5.02351 -0.332621 -0.485824 1.42793e+06 
62 -0.06385 8.83416e-05 1108.14 273.119 5.02443 5.02368 -0.326133 -0.482493 1.42807e+06 
63 -0.06375 8.8342e-05 1108.14 273.119 5.02446 5.02374 -0.284667 -0.449541 1.42802e+06 
67 -0.06335 8.83418e-05 1108.14 273.118 5.02442 5.02359 -0.26453 -0.443755 1.42795e+06 
65 -0.06355 8.83415e-05 1108.14 273.119 5.02442 5.0237 -0.27302 -0.472126 1.42798e+06 
66 -0.06345 8.83422e-05 1108.14 273.119 5.02446 5.02372 -0.275885 -0.46758 1.428e+06 
68 -0.06325 8.83425e-05 1108.14 273.117 5.02444 5.02365 -0.231699 -0.425227 1.42791e+06 
69 -0.06315 8.83422e-05 1108.14 273.12 5.02448 5.02373 -0.257871 -0.460628 1.42796e+06 
70 -0.06305 8.83423e-05 1108.14 273.119 5.02448 5.02369 -0.293669 -0.528817 1.42803e+06 
71 -0.06295 8.83418e-05 1108.14 273.121 5.02448 5.02371 -0.298543 -0.50153 1.42802e+06 
72 -0.06285 8.83426e-05 1108.14 273.121 5.02452 5.02375 -0.309701 -0.544354 1.42808e+06 
73 -0.06275 8.83422e-05 1108.14 273.121 5.0245 5.02374 -0.310857 -0.536985 1.42811e+06 
74 -0.06265 8.83427e-05 1108.14 273.119 5.02449 5.02372 -0.245683 -0.46004 1.42802e+06 
75 -0.06255 8.8342e-05 1108.14 273.118 5.02443 5.02366 -0.248202 -0.443118 1.42803e+06 
76 -0.06245 8.83427e-05 1108.14 273.119 5.02449 5.02373 -0.295536 -0.553776 1.42809e+06 
77 -0.06235 8.83435e-05 1108.14 273.121 5.02457 5.02393 -0.296402 -0.604407 1.42819e+06 
78 -0.06225 8.83428e-05 1108.14 273.118 5.02448 5.02391 -0.268918 -0.547266 1.42816e+06 
79 -0.06215 8.83426e-05 1108.14 273.12 5.02452 5.0239 -0.231619 -0.481546 1.42809e+06 
80 -0.06205 8.83433e-05 1108.14 273.118 5.02451 5.02401 -0.257891 -0.528539 1.42816e+06 
81 -0.06195 8.83433e-05 1108.14 273.122 5.02459 5.02417 -0.32796 -0.647284 1.4284e+06 
82 -0.06185 8.83433e-05 1108.14 273.118 5.02452 5.02399 -0.243678 -0.515046 1.42813e+06 
83 -0.06175 8.83434e-05 1108.14 273.121 5.02456 5.02409 -0.293468 -0.608525 1.42833e+06 
84 -0.06165 8.83437e-05 1108.14 273.121 5.02458 5.02417 -0.309878 -0.646228 1.42839e+06 
85 -0.06155 8.83436e-05 1108.13 273.122 5.02459 5.02412 -0.319448 -0.633782 1.42836e+06 
86 -0.06145 8.83425e-05 1108.14 273.124 5.02458 5.02402 -0.30252 -0.611817 1.42831e+06 
87 -0.06135 8.8344e-05 1108.14 273.121 5.02461 5.0241 -0.357927 -0.679682 1.42841e+06 
88 -0.06125 8.83432e-05 1108.14 273.123 5.02459 5.02405 -0.353464 -0.647121 1.42837e+06 
89 -0.06115 8.83431e-05 1108.14 273.123 5.02458 5.02402 -0.373236 -0.673781 1.42838e+06 
90 -0.06105 8.83425e-05 1108.14 273.122 5.02454 5.02397 -0.309982 -0.560826 1.4283e+06 
91 -0.06095 8.83428e-05 1108.14 273.119 5.02451 5.02386 -0.284227 -0.501088 1.42818e+06 
92 -0.06085 8.8343e-05 1108.14 273.122 5.02457 5.02384 -0.286672 -0.513123 1.42822e+06 
93 -0.06075 8.83423e-05 1108.14 273.123 5.02455 5.0238 -0.341879 -0.603489 1.42828e+06 
94 -0.06065 8.83425e-05 1108.14 273.121 5.02453 5.02372 -0.324583 -0.545325 1.42818e+06 
64 -0.06365 8.8342e-05 1108.14 273.118 5.02443 5.02375 -0.304419 -0.506099 1.42804e+06 
100 -0.06005 8.83428e-05 1108.14 273.122 5.02455 5.02381 -0.307886 -0.605289 1.42822e+06 
97 -0.06035 8.83433e-05 1108.14 273.123 5.02461 5.02398 -0.346734 -0.647921 1.42832e+06 
98 -0.06025 8.83422e-05 1108.14 273.123 5.02454 5.02392 -0.332294 -0.62272 1.42828e+06 
99 -0.06015 8.83422e-05 1108.14 273.121 5.0245 5.02385 -0.309456 -0.585911 1.42824e+06 
101 -0.05995 8.83426e-05 1108.14 273.124 5.02457 5.0239 -0.337077 -0.64183 1.42829e+06 
102 -0.05985 8.83416e-05 1108.14 273.122 5.02449 5.02387 -0.315151 -0.622767 1.42829e+06 
103 -0.05975 8.83424e-05 1108.14 273.124 5.02457 5.02398 -0.354336 -0.695074 1.42835e+06 
104 -0.05965 8.83422e-05 1108.13 273.125 5.02457 5.024 -0.328239 -0.626468 1.42836e+06 
105 -0.05955 8.83426e-05 1108.13 273.124 5.02457 5.02411 -0.341689 -0.654005 1.42839e+06 
106 -0.05945 8.83427e-05 1108.14 273.123 5.02457 5.02409 -0.341283 -0.643025 1.42841e+06 
107 -0.05935 8.83423e-05 1108.13 273.123 5.02454 5.02395 -0.320686 -0.630348 1.42836e+06 
108 -0.05925 8.83423e-05 1108.14 273.121 5.0245 5.02385 -0.258796 -0.494389 1.42824e+06 
109 -0.05915 8.83428e-05 1108.14 273.121 5.02454 5.02393 -0.284565 -0.538113 1.42828e+06 
110 -0.05905 8.83417e-05 1108.14 273.116 5.02438 5.02369 -0.192631 -0.336998 1.4281e+06 
111 -0.05895 8.83424e-05 1108.14 273.114 5.02439 5.02357 -0.168219 -0.264408 1.42793e+06 
112 -0.05885 8.83421e-05 1108.14 273.119 5.02447 5.02383 -0.288447 -0.472645 1.42824e+06 
113 -0.05875 8.83421e-05 1108.14 273.119 5.02447 5.02387 -0.228076 -0.401405 1.42818e+06 
114 -0.05865 8.83421e-05 1108.13 273.119 5.02445 5.02385 -0.256481 -0.445948 1.42819e+06 
115 -0.05855 8.83433e-05 1108.14 273.118 5.02451 5.02396 -0.225355 -0.431004 1.42814e+06 
116 -0.05845 8.83422e-05 1108.14 273.116 5.02441 5.02387 -0.190875 -0.375946 1.42814e+06 
117 -0.05835 8.83432e-05 1108.14 273.118 5.0245 5.02404 -0.238633 -0.510839 1.42829e+06 
118 -0.05825 8.83419e-05 1108.13 273.119 5.02446 5.02403 -0.251159 -0.519607 1.42828e+06 
119 -0.05815 8.8343e-05 1108.13 273.12 5.02453 5.02407 -0.270971 -0.553999 1.42835e+06 
120 -0.05805 8.83423e-05 1108.13 273.121 5.0245 5.02416 -0.300112 -0.573958 1.42843e+06 
121 -0.05795 8.83429e-05 1108.13 273.12 5.02453 5.02414 -0.274496 -0.512754 1.42839e+06 
122 -0.05785 8.8343e-05 1108.14 273.121 5.02455 5.02419 -0.295002 -0.570248 1.42843e+06 
123 -0.05775 8.83428e-05 1108.13 273.122 5.02454 5.02423 -0.349793 -0.650784 1.42855e+06 
124 -0.05765 8.83425e-05 1108.13 273.121 5.02451 5.02431 -0.360045 -0.683978 1.42859e+06 
125 -0.05755 8.83435e-05 1108.13 273.123 5.02462 5.02431 -0.34142 -0.62803 1.42859e+06 
95 -0.06055 8.83425e-05 1108.14 273.123 5.02456 5.02387 -0.363165 -0.629195 1.42832e+06 
96 -0.06045 8.83422e-05 1108.14 273.124 5.02455 5.02397 -0.385014 -0.68444 1.42839e+06 
133 -0.05675 8.83429e-05 1108.13 273.118 5.02449 5.02426 -0.232739 -0.447699 1.42853e+06 
129 -0.05715 8.83432e-05 1108.13 273.117 5.02449 5.02428 -0.253435 -0.517429 1.42845e+06 
130 -0.05705 8.83436e-05 1108.13 273.121 5.02459 5.02447 -0.306614 -0.615897 1.42868e+06 
131 -0.05695 8.8343e-05 1108.13 273.122 5.02457 5.02439 -0.315423 -0.556312 1.42861e+06 
132 -0.05685 8.83434e-05 1108.13 273.118 5.02452 5.02431 -0.252279 -0.483358 1.42854e+06 
134 -0.05665 8.83439e-05 1108.13 273.118 5.02453 5.02444 -0.249029 -0.462178 1.42861e+06 
135 -0.05655 8.83424e-05 1108.13 273.115 5.0244 5.02422 -0.171991 -0.28685 1.42835e+06 
136 -0.05645 8.83435e-05 1108.13 273.119 5.02455 5.02452 -0.233494 -0.410227 1.42859e+06 
137 -0.05635 8.8343e-05 1108.13 273.122 5.02456 5.02459 -0.278095 -0.525505 1.42874e+06 
138 -0.05625 8.83434e-05 1108.13 273.119 5.02454 5.02464 -0.304829 -0.578217 1.4288e+06 
139 -0.05615 8.83433e-05 1108.13 273.123 5.0246 5.02474 -0.3611 -0.705756 1.4289e+06 
140 -0.05605 8.83434e-05 1108.13 273.124 5.02463 5.02485 -0.398148 -0.758932 1.42903e+06 
141 -0.05595 8.83433e-05 1108.13 273.121 5.02457 5.02474 -0.310352 -0.587218 1.42888e+06 
142 -0.05585 8.8343e-05 1108.13 273.121 5.02454 5.02468 -0.299025 -0.575001 1.42889e+06 
143 -0.05575 8.83427e-05 1108.13 273.121 5.02453 5.02454 -0.28423 -0.470214 1.42874e+06 
144 -0.05565 8.83435e-05 1108.13 273.12 5.02456 5.02452 -0.248463 -0.402039 1.42876e+06 
145 -0.05555 8.83427e-05 1108.13 273.117 5.02447 5.0244 -0.260481 -0.367593 1.4287e+06 
146 -0.05545 8.83428e-05 1108.13 273.122 5.02455 5.02453 -0.297519 -0.416552 1.42886e+06 
147 -0.05535 8.83431e-05 1108.13 273.119 5.02452 5.02433 -0.25006 -0.321791 1.42864e+06 
148 -0.05525 8.83431e-05 1108.13 273.12 5.02454 5.02449 -0.312876 -0.429579 1.42879e+06 
149 -0.05515 8.8343e-05 1108.13 273.122 5.02456 5.02455 -0.266736 -0.343021 1.42878e+06 
150 -0.05505 8.83432e-05 1108.13 273.118 5.02452 5.02454 -0.228726 -0.268587 1.42866e+06 
151 -0.05495 8.83427e-05 1108.13 273.12 5.02451 5.02446 -0.221283 -0.259222 1.42869e+06 
152 -0.05485 8.83431e-05 1108.13 273.116 5.02446 5.02429 -0.170563 -0.146705 1.42854e+06 
153 -0.05475 8.83432e-05 1108.13 273.116 5.02446 5.02434 -0.155129 -0.165107 1.42852e+06 
154 -0.05465 8.83432e-05 1108.13 273.118 5.0245 5.02437 -0.114096 -0.154248 1.42856e+06 
155 -0.05455 8.83428e-05 1108.13 273.115 5.02442 5.0243 -0.135672 -0.169832 1.42851e+06 
156 -0.05445 8.83433e-05 1108.13 273.114 5.02444 5.02418 -0.0908971 -0.0401201 1.42847e+06 
126 -0.05745 8.83433e-05 1108.13 273.122 5.02458 5.02432 -0.317415 -0.596108 1.42855e+06 
127 -0.05735 8.8343e-05 1108.13 273.122 5.02456 5.02433 -0.330189 -0.656581 1.42859e+06 
128 -0.05725 8.83427e-05 1108.13 273.121 5.02453 5.02437 -0.304363 -0.619252 1.42862e+06 
166 -0.05345 8.83433e-05 1108.13 273.12 5.02454 5.0246 -0.217207 -0.254929 1.42866e+06 
161 -0.05395 8.83427e-05 1108.13 273.116 5.02445 5.02434 -0.130891 -0.0643037 1.42853e+06 
162 -0.05385 8.83444e-05 1108.13 273.118 5.02458 5.02458 -0.121586 -0.0405127 1.4286e+06 
163 -0.05375 8.8343e-05 1108.13 273.117 5.02448 5.02443 -0.138664 -0.0784759 1.42855e+06 
164 -0.05365 8.83428e-05 1108.13 273.119 5.0245 5.02448 -0.201758 -0.216801 1.42861e+06 
165 -0.05355 8.83435e-05 1108.13 273.119 5.02454 5.02457 -0.215856 -0.271683 1.42868e+06 
167 -0.05335 8.83433e-05 1108.13 273.121 5.02456 5.02458 -0.211469 -0.280204 1.42867e+06 
168 -0.05325 8.83431e-05 1108.13 273.119 5.02452 5.02455 -0.214213 -0.303668 1.42866e+06 
169 -0.05315 8.8343e-05 1108.13 273.12 5.02452 5.02448 -0.234305 -0.311555 1.42869e+06 
170 -0.05305 8.83439e-05 1108.13 273.119 5.02456 5.02456 -0.141035 -0.173843 1.42857e+06 
171 -0.05295 8.8344e-05 1108.12 273.119 5.02457 5.0247 -0.184875 -0.262198 1.42862e+06 
172 -0.05285 8.83437e-05 1108.13 273.121 5.02458 5.02483 -0.196717 -0.291474 1.42871e+06 
173 -0.05275 8.83434e-05 1108.12 273.119 5.02453 5.02486 -0.209339 -0.351273 1.42873e+06 
174 -0.05265 8.83446e-05 1108.12 273.119 5.0246 5.02485 -0.183234 -0.308508 1.42876e+06 
175 -0.05255 8.83431e-05 1108.12 273.122 5.02458 5.02489 -0.252269 -0.426059 1.4289e+06 
176 -0.05245 8.83441e-05 1108.12 273.123 5.02465 5.025 -0.203885 -0.369796 1.42886e+06 
177 -0.05235 8.8344e-05 1108.12 273.118 5.02454 5.02481 -0.164022 -0.25087 1.42868e+06 
178 -0.05225 8.83434e-05 1108.12 273.122 5.0246 5.02478 -0.203173 -0.267235 1.42871e+06 
179 -0.05215 8.83443e-05 1108.12 273.122 5.02464 5.02497 -0.218643 -0.338918 1.42885e+06 
180 -0.05205 8.83439e-05 1108.12 273.121 5.0246 5.02484 -0.205132 -0.315914 1.42877e+06 
181 -0.05195 8.83436e-05 1108.12 273.122 5.02461 5.02478 -0.173314 -0.278218 1.42872e+06 
182 -0.05185 8.83439e-05 1108.12 273.119 5.02456 5.0248 -0.201621 -0.342302 1.42878e+06 
183 -0.05175 8.83438e-05 1108.12 273.121 5.0246 5.02479 -0.15497 -0.282127 1.42874e+06 
184 -0.05165 8.83436e-05 1108.12 273.116 5.02449 5.02466 -0.111922 -0.234705 1.42859e+06 
185 -0.05155 8.8344e-05 1108.12 273.122 5.02461 5.02484 -0.108316 -0.214093 1.42872e+06 
186 -0.05145 8.83435e-05 1108.12 273.116 5.02448 5.02461 -0.10504 -0.195019 1.42861e+06 
187 -0.05135 8.83437e-05 1108.13 273.119 5.02455 5.02464 -0.105096 -0.239425 1.42871e+06 
188 -0.05125 8.83436e-05 1108.13 273.116 5.02448 5.02455 -0.017006 -0.0691763 1.42852e+06 
157 -0.05435 8.83426e-05 1108.13 273.115 5.0244 5.02406 -0.0909911 -0.0203349 1.42838e+06 
158 -0.05425 8.8343e-05 1108.13 273.116 5.02446 5.02428 -0.106418 -0.0672874 1.4285e+06 
159 -0.05415 8.83428e-05 1108.13 273.116 5.02444 5.02421 -0.121667 -0.0366892 1.4285e+06 
160 -0.05405 8.83434e-05 1108.13 273.118 5.02451 5.02442 -0.142128 -0.0907593 1.42861e+06 
199 -0.05015 8.83439e-05 1108.13 273.11 5.0244 5.02403 0.141739 0.323593 1.42812e+06 
193 -0.05075 8.83436e-05 1108.13 273.115 5.02447 5.02425 0.0768801 0.128383 1.42832e+06 
194 -0.05065 8.83431e-05 1108.13 273.109 5.02434 5.02411 0.0875146 0.169384 1.42826e+06 
195 -0.05055 8.83427e-05 1108.13 273.11 5.02433 5.02407 0.127484 0.282984 1.4282e+06 
196 -0.05045 8.83439e-05 1108.13 273.112 5.02443 5.02418 0.130707 0.265763 1.42824e+06 
197 -0.05035 8.83431e-05 1108.13 273.111 5.02437 5.02418 0.108175 0.210829 1.42828e+06 
198 -0.05025 8.83437e-05 1108.13 273.111 5.0244 5.02418 0.146216 0.321196 1.4282e+06 
200 -0.05005 8.83438e-05 1108.13 273.114 5.02445 5.02424 0.068742 0.159853 1.42836e+06 
201 -0.04995 8.83437e-05 1108.13 273.116 5.0245 5.0244 -0.00843821 0.00403712 1.42857e+06 
202 -0.04985 8.83435e-05 1108.13 273.115 5.02446 5.02436 -0.00139066 0.0326417 1.42859e+06 
203 -0.04975 8.8344e-05 1108.13 273.117 5.02453 5.02437 0.0311005 0.0932599 1.42852e+06 
204 -0.04965 8.83437e-05 1108.13 273.117 5.02452 5.02443 -0.0470449 -0.0381009 1.42863e+06 
205 -0.04955 8.83438e-05 1108.13 273.118 5.02454 5.02432 -0.0178874 0.0484856 1.42857e+06 
206 -0.04945 8.83434e-05 1108.13 273.116 5.02448 5.02428 -0.0168093 0.0226158 1.42854e+06 
207 -0.04935 8.83444e-05 1108.13 273.116 5.02454 5.02434 -0.00645375 0.0453021 1.42857e+06 
208 -0.04925 8.83427e-05 1108.13 273.116 5.02443 5.02425 0.048924 0.110457 1.4285e+06 
209 -0.04915 8.83433e-05 1108.13 273.116 5.02447 5.02427 -0.0308026 0.0207063 1.42854e+06 
210 -0.04905 8.83439e-05 1108.13 273.117 5.02452 5.02436 0.0463443 0.118172 1.42853e+06 
211 -0.04895 8.83438e-05 1108.13 273.114 5.02447 5.02434 0.0353321 0.0835922 1.42849e+06 
212 -0.04885 8.83435e-05 1108.13 273.118 5.02452 5.02436 0.00532078 0.0166009 1.42858e+06 
213 -0.04875 8.83435e-05 1108.13 273.118 5.02451 5.02432 0.0127582 0.0505126 1.42859e+06 
214 -0.04865 8.83433e-05 1108.13 273.114 5.02444 5.02411 0.080229 0.18637 1.42843e+06 
215 -0.04855 8.83432e-05 1108.13 273.111 5.02439 5.02401 0.120172 0.246782 1.4283e+06 
216 -0.04845 8.83434e-05 1108.13 273.111 5.02438 5.02394 0.152887 0.292686 1.42826e+06 
217 -0.04835 8.83435e-05 1108.13 273.115 5.02446 5.02421 0.0965266 0.175279 1.42845e+06 
218 -0.04825 8.83429e-05 1108.13 273.115 5.02443 5.02415 0.0458976 0.0837962 1.42845e+06 
219 -0.04815 8.83436e-05 1108.13 273.113 5.02444 5.0241 0.0615652 0.0883813 1.42844e+06 
189 -0.05115 8.83435e-05 1108.12 273.116 5.02448 5.02455 -0.00904846 -0.0811934 1.4285e+06 
190 -0.05105 8.83436e-05 1108.13 273.115 5.02447 5.02455 -0.0166003 -0.123408 1.42859e+06 
191 -0.05095 8.83438e-05 1108.13 273.115 5.02447 5.02445 -0.0129552 -0.0992424 1.42853e+06 
192 -0.05085 8.83438e-05 1108.13 273.112 5.02443 5.02431 -0.0316412 -0.0949304 1.42848e+06 
232 -0.04685 8.83431e-05 1108.13 273.119 5.02451 5.02452 -0.103807 -0.224974 1.42888e+06 
225 -0.04755 8.83437e-05 1108.13 273.116 5.02449 5.02426 0.0233125 0.0759782 1.42852e+06 
226 -0.04745 8.83434e-05 1108.13 273.114 5.02445 5.0243 -0.0191132 0.0146351 1.42855e+06 
227 -0.04735 8.83433e-05 1108.13 273.117 5.0245 5.02437 -0.00596564 0.0129971 1.42861e+06 
228 -0.04725 8.83433e-05 1108.13 273.115 5.02445 5.02429 0.004559 0.0155774 1.4285e+06 
229 -0.04715 8.83427e-05 1108.13 273.114 5.02439 5.02415 0.0278113 0.0258637 1.4285e+06 
230 -0.04705 8.83432e-05 1108.13 273.117 5.02449 5.02444 -0.0382485 -0.126896 1.42869e+06 
231 -0.04695 8.83436e-05 1108.13 273.117 5.0245 5.02453 -0.0584821 -0.184479 1.42883e+06 
233 -0.04675 8.83434e-05 1108.13 273.116 5.02447 5.02446 -0.027524 -0.12554 1.42871e+06 
234 -0.04665 8.83435e-05 1108.13 273.114 5.02446 5.02445 -0.0286915 -0.090973 1.42867e+06 
235 -0.04655 8.83432e-05 1108.13 273.115 5.02445 5.02448 -0.0152627 -0.0640088 1.42865e+06 
236 -0.04645 8.83439e-05 1108.13 273.118 5.02454 5.02465 -0.0450106 -0.137365 1.42883e+06 
237 -0.04635 8.83432e-05 1108.13 273.114 5.02443 5.02447 -0.00667789 -0.083971 1.4287e+06 
238 -0.04625 8.83441e-05 1108.13 273.113 5.02447 5.02442 0.0340517 -0.0374594 1.42865e+06 
239 -0.04615 8.83429e-05 1108.13 273.114 5.02442 5.02429 0.00504489 -0.0763179 1.42866e+06 
240 -0.04605 8.83431e-05 1108.13 273.112 5.0244 5.02431 0.0101684 -0.0645268 1.42863e+06 
241 -0.04595 8.83435e-05 1108.13 273.114 5.02445 5.02445 -0.000800445 -0.122845 1.42874e+06 
242 -0.04585 8.83443e-05 1108.13 273.115 5.02451 5.02458 -0.0616932 -0.217137 1.42883e+06 
243 -0.04575 8.8343e-05 1108.13 273.12 5.02453 5.02463 -0.0849812 -0.261472 1.42892e+06 
244 -0.04565 8.8344e-05 1108.13 273.117 5.02452 5.02456 -0.0566917 -0.186112 1.42881e+06 
245 -0.04555 8.83435e-05 1108.13 273.116 5.02448 5.02456 -0.0608259 -0.196995 1.42879e+06 
246 -0.04545 8.83429e-05 1108.13 273.117 5.02447 5.02458 -0.0600982 -0.199656 1.42882e+06 
247 -0.04535 8.83434e-05 1108.13 273.117 5.0245 5.02464 -0.0619327 -0.236704 1.42887e+06 
248 -0.04525 8.83432e-05 1108.13 273.114 5.02443 5.0246 -0.0398982 -0.203313 1.42878e+06 
249 -0.04515 8.83438e-05 1108.13 273.116 5.02451 5.02451 0.0379672 -0.0463697 1.42866e+06 
250 -0.04505 8.83431e-05 1108.13 273.113 5.02441 5.02448 0.0167553 -0.0689122 1.4286e+06 
220 -0.04805 8.83436e-05 1108.13 273.118 5.02453 5.02436 0.0225221 0.0259106 1.42858e+06 
221 -0.04795 8.83433e-05 1108.13 273.115 5.02445 5.02418 0.0328285 0.04408 1.42847e+06 
222 -0.04785 8.83434e-05 1108.13 273.113 5.02443 5.02422 0.0527002 0.063628 1.42841e+06 
223 -0.04775 8.83435e-05 1108.13 273.115 5.02447 5.02424 0.0319904 0.0723506 1.42847e+06 
224 -0.04765 8.83435e-05 1108.13 273.115 5.02447 5.02423 0.0276091 0.0877691 1.42845e+06 
265 -0.04355 8.83435e-05 1108.13 273.115 5.02447 5.02445 0.00585979 -0.100498 1.42861e+06 
257 -0.04435 8.83437e-05 1108.13 273.121 5.02458 5.02448 -0.0968825 -0.222186 1.42883e+06 
258 -0.04425 8.83431e-05 1108.13 273.118 5.0245 5.02443 -0.0731716 -0.191211 1.42873e+06 
259 -0.04415 8.83435e-05 1108.13 273.12 5.02455 5.02454 -0.0970701 -0.250731 1.42884e+06 
260 -0.04405 8.8343e-05 1108.13 273.121 5.02454 5.02461 -0.119497 -0.278183 1.42888e+06 
261 -0.04395 8.83435e-05 1108.13 273.12 5.02456 5.0246 -0.100468 -0.26726 1.42885e+06 
262 -0.04385 8.83429e-05 1108.13 273.117 5.02447 5.02443 -0.0181993 -0.147412 1.42866e+06 
263 -0.04375 8.83436e-05 1108.13 273.116 5.02449 5.0245 0.0277023 -0.0550678 1.42861e+06 
264 -0.04365 8.83433e-05 1108.13 273.117 5.0245 5.02453 -0.00140926 -0.132876 1.42865e+06 
266 -0.04345 8.83435e-05 1108.13 273.117 5.02451 5.02461 -0.0307446 -0.192178 1.42876e+06 
267 -0.04335 8.83436e-05 1108.13 273.115 5.02447 5.02456 0.00782185 -0.132839 1.42867e+06 
268 -0.04325 8.83436e-05 1108.13 273.115 5.02447 5.02446 0.0344406 -0.0196648 1.42854e+06 
269 -0.04315 8.83432e-05 1108.12 273.114 5.02443 5.02452 -0.0138777 -0.0850195 1.4286e+06 
270 -0.04305 8.8344e-05 1108.12 273.119 5.02456 5.02478 -0.0744116 -0.203394 1.42883e+06 
271 -0.04295 8.83427e-05 1108.13 273.12 5.02452 5.02477 -0.104353 -0.243794 1.4289e+06 
272 -0.04285 8.83438e-05 1108.12 273.119 5.02456 5.02471 -0.107566 -0.239459 1.42881e+06 
273 -0.04275 8.83434e-05 1108.12 273.12 5.02456 5.0248 -0.132789 -0.280554 1.42896e+06 
274 -0.04265 8.83442e-05 1108.12 273.123 5.02465 5.02488 -0.158228 -0.339034 1.42908e+06 
275 -0.04255 8.83435e-05 1108.13 273.118 5.02451 5.02462 -0.111815 -0.218584 1.42882e+06 
276 -0.04245 8.83438e-05 1108.13 273.119 5.02456 5.02465 -0.121733 -0.20737 1.42885e+06 
277 -0.04235 8.83438e-05 1108.13 273.119 5.02456 5.02452 -0.0935882 -0.165799 1.42877e+06 
278 -0.04225 8.8343e-05 1108.13 273.119 5.0245 5.02434 -0.098501 -0.108289 1.42867e+06 
279 -0.04215 8.83436e-05 1108.13 273.12 5.02456 5.02443 -0.102799 -0.0904834 1.42875e+06 
280 -0.04205 8.83429e-05 1108.13 273.121 5.02454 5.02442 -0.1239 -0.141621 1.42878e+06 
281 -0.04195 8.83437e-05 1108.13 273.12 5.02458 5.02446 -0.128979 -0.146914 1.42882e+06 
251 -0.04495 8.8344e-05 1108.13 273.113 5.02446 5.02451 -0.00696443 -0.105719 1.42864e+06 
252 -0.04485 8.83437e-05 1108.13 273.114 5.02446 5.02442 -0.0104015 -0.0868646 1.42858e+06 
253 -0.04475 8.83434e-05 1108.12 273.118 5.02452 5.02451 -0.0346738 -0.143338 1.42869e+06 
254 -0.04465 8.83439e-05 1108.13 273.119 5.02456 5.02443 -0.0417154 -0.0962788 1.42866e+06 
255 -0.04455 8.83431e-05 1108.13 273.113 5.0244 5.02415 0.0288779 0.0272033 1.42841e+06 
256 -0.04445 8.83434e-05 1108.13 273.118 5.02452 5.0244 -0.0344445 -0.079916 1.42867e+06 
298 -0.04025 8.8344e-05 1108.13 273.12 5.02458 5.02462 -0.0814158 -0.0502791 1.42889e+06 
289 -0.04115 8.83434e-05 1108.13 273.119 5.02453 5.02451 -0.0760066 -0.0594408 1.42878e+06 
290 -0.04105 8.83436e-05 1108.13 273.119 5.02454 5.0246 -0.0785132 -0.048326 1.42878e+06 
291 -0.04095 8.83435e-05 1108.12 273.121 5.02457 5.02474 -0.110798 -0.105929 1.42884e+06 
292 -0.04085 8.8344e-05 1108.13 273.121 5.0246 5.02473 -0.0951723 -0.121278 1.42882e+06 
293 -0.04075 8.83428e-05 1108.13 273.118 5.02449 5.02441 -0.0155941 0.0564853 1.42862e+06 
294 -0.04065 8.83437e-05 1108.13 273.117 5.02452 5.02439 0.00242114 0.0961311 1.42857e+06 
295 -0.04055 8.83438e-05 1108.13 273.118 5.02453 5.02447 -0.0565244 -0.0131858 1.42872e+06 
296 -0.04045 8.83435e-05 1108.13 273.117 5.02451 5.02431 -0.0180602 0.0366158 1.4286e+06 
297 -0.04035 8.83437e-05 1108.13 273.117 5.02451 5.02438 -0.0285273 0.0558335 1.4287e+06 
299 -0.04015 8.83437e-05 1108.13 273.117 5.02451 5.0244 -0.0407144 0.0440765 1.42874e+06 
300 -0.04005 8.83437e-05 1108.13 273.117 5.02452 5.02442 -0.0376478 0.0470988 1.42878e+06 
301 -0.03995 8.83441e-05 1108.13 273.116 5.02453 5.02447 -0.063622 0.0106382 1.42873e+06 
302 -0.03985 8.83434e-05 1108.13 273.117 5.0245 5.02449 -0.0540219 0.00893716 1.4288e+06 
303 -0.03975 8.83441e-05 1108.13 273.119 5.02458 5.02472 -0.085281 -0.0469925 1.42891e+06 
304 -0.03965 8.83433e-05 1108.13 273.118 5.02452 5.02455 -0.0642844 0.00204925 1.42882e+06 
305 -0.03955 8.8343e-05 1108.13 273.121 5.02454 5.02461 -0.135718 -0.117379 1.429e+06 
306 -0.03945 8.83435e-05 1108.13 273.119 5.02453 5.02454 -0.0818141 -0.00552081 1.42888e+06 
307 -0.03935 8.83437e-05 1108.13 273.117 5.02452 5.02448 -0.0959588 -0.0400907 1.42886e+06 
308 -0.03925 8.83437e-05 1108.13 273.117 5.02451 5.02446 -0.0595215 0.0162586 1.42882e+06 
309 -0.03915 8.8343e-05 1108.13 273.119 5.02452 5.02449 -0.060912 0.017514 1.42885e+06 
310 -0.03905 8.83437e-05 1108.13 273.115 5.02448 5.02445 -0.0411486 0.0415892 1.42884e+06 
311 -0.03895 8.83435e-05 1108.13 273.117 5.0245 5.02446 -0.128303 -0.136514 1.42893e+06 
312 -0.03885 8.83434e-05 1108.13 273.117 5.0245 5.02452 -0.0790551 -0.0509922 1.42885e+06 
313 -0.03875 8.83437e-05 1108.13 273.117 5.02451 5.02448 -0.0869515 -0.0455228 1.42886e+06 
282 -0.04185 8.83441e-05 1108.13 273.12 5.0246 5.02453 -0.140869 -0.195687 1.42885e+06 
283 -0.04175 8.83433e-05 1108.13 273.121 5.02457 5.0245 -0.0946155 -0.107751 1.42883e+06 
284 -0.04165 8.83435e-05 1108.13 273.118 5.02452 5.02437 -0.109249 -0.0880431 1.4287e+06 
285 -0.04155 8.83433e-05 1108.13 273.12 5.02454 5.02441 -0.0812068 -0.0487369 1.42869e+06 
286 -0.04145 8.83434e-05 1108.13 273.12 5.02455 5.02458 -0.11087 -0.14279 1.42883e+06 
287 -0.04135 8.83431e-05 1108.12 273.122 5.02457 5.02459 -0.123732 -0.193827 1.42888e+06 
288 -0.04125 8.83445e-05 1108.13 273.12 5.02462 5.02465 -0.106953 -0.143802 1.42889e+06 
331 -0.03695 8.8344e-05 1108.13 273.114 5.02448 5.02428 -0.024199 0.0868504 1.42873e+06 
321 -0.03795 8.83429e-05 1108.13 273.112 5.02437 5.02407 0.00168506 0.167012 1.42867e+06 
322 -0.03785 8.8343e-05 1108.13 273.114 5.02441 5.0241 -0.00995004 0.140867 1.42871e+06 
323 -0.03775 8.83429e-05 1108.13 273.112 5.02437 5.02399 0.00682559 0.180551 1.42862e+06 
324 -0.03765 8.83433e-05 1108.13 273.114 5.02444 5.02422 -0.0449537 0.0469274 1.42882e+06 
325 -0.03755 8.83438e-05 1108.13 273.116 5.02449 5.02439 -0.110273 -0.0480036 1.42891e+06 
326 -0.03745 8.83435e-05 1108.13 273.115 5.02448 5.02431 -0.0517623 0.0355525 1.42881e+06 
327 -0.03735 8.83433e-05 1108.13 273.114 5.02444 5.02427 0.00368796 0.162535 1.42874e+06 
328 -0.03725 8.83436e-05 1108.13 273.114 5.02446 5.02434 -0.0467018 0.0565022 1.42882e+06 
329 -0.03715 8.83441e-05 1108.13 273.113 5.02447 5.02433 0.0195609 0.121543 1.42876e+06 
330 -0.03705 8.83435e-05 1108.13 273.112 5.02441 5.02425 -0.0162516 0.0856835 1.42873e+06 
332 -0.03685 8.83427e-05 1108.13 273.112 5.02437 5.02407 0.0177278 0.176578 1.42865e+06 
333 -0.03675 8.83438e-05 1108.13 273.112 5.02443 5.02414 0.0161261 0.180277 1.42862e+06 
334 -0.03665 8.83428e-05 1108.13 273.112 5.02438 5.02419 0.0134375 0.193169 1.42869e+06 
335 -0.03655 8.8343e-05 1108.13 273.112 5.02439 5.02416 -0.0202158 0.0793083 1.42876e+06 
336 -0.03645 8.83436e-05 1108.13 273.114 5.02444 5.02417 -0.0116746 0.132342 1.42877e+06 
337 -0.03635 8.8343e-05 1108.13 273.112 5.02439 5.02411 -0.0283404 0.0937461 1.42877e+06 
338 -0.03625 8.83427e-05 1108.13 273.113 5.02439 5.02413 -0.0489991 0.0586156 1.42881e+06 
339 -0.03615 8.83431e-05 1108.13 273.114 5.02442 5.02416 0.0140438 0.173419 1.42875e+06 
340 -0.03605 8.83436e-05 1108.13 273.111 5.02441 5.02419 -0.00610393 0.122866 1.42878e+06 