TITLE = "DSMC"
VARIABLES = "ID" "X" "rho" "v1" "Ttrans" "p" "p1" "q1" "mv1v1v1" "mvvv1v1"
ZONE T="Ma=6.0_inv", I=800, J=1, K=1, F=POINT
800 -0.02995 0.000326413 -500.211 3305.79 224.705 224.692 7.51492 10.827 773432000.0
799 -0.02985 0.00032641 -500.218 3305.76 224.7 224.689 8.27238 10.6497 773409000.0
798 -0.02975 0.000326404 -500.224 3305.7 224.693 224.688 5.79355 11.4276 773410000.0
797 -0.02965 0.000326401 -500.228 3305.59 224.683 224.688 1.72383 14.1134 773408000.0
796 -0.02955 0.00032642 -500.199 3305.64 224.7 224.694 -2.00602 -3.06853 773416000.0
795 -0.02945 0.00032641 -500.217 3305.7 224.697 224.689 4.9811 4.56287 773404000.0
794 -0.02935 0.000326409 -500.22 3305.76 224.7 224.691 8.63398 4.11978 773422000.0
793 -0.02925 0.000326402 -500.225 3305.86 224.702 224.688 16.3871 15.0772 773414000.0
792 -0.02915 0.000326401 -500.233 3305.79 224.697 224.687 13.5505 16.0629 773406000.0
791 -0.02905 0.000326399 -500.23 3305.79 224.695 224.688 10.7975 13.2731 773414000.0
790 -0.02895 0.000326424 -500.196 3305.74 224.709 224.693 1.38887 -7.89849 773402000.0
789 -0.02885 0.000326413 -500.209 3305.79 224.704 224.69 9.22853 3.76095 773407000.0
788 -0.02875 0.00032643 -500.183 3305.8 224.717 224.694 1.59834 -13.9282 773420000.0
787 -0.02865 0.000326426 -500.19 3305.73 224.709 224.693 -1.30461 -10.9709 773402000.0
786 -0.02855 0.000326425 -500.191 3305.74 224.709 224.692 1.63843 -8.22264 773395000.0
785 -0.02845 0.000326417 -500.206 3305.72 224.703 224.69 2.39994 -4.38222 773387000.0
784 -0.02835 0.000326419 -500.202 3305.64 224.699 224.692 0.528278 0.486072 773392000.0
783 -0.02825 0.000326412 -500.217 3305.77 224.703 224.69 9.00627 4.06947 773406000.0
782 -0.02815 0.000326426 -500.188 3305.67 224.706 224.696 -0.32596 -6.92754 773428000.0
781 -0.02805 0.000326427 -500.19 3305.68 224.707 224.692 -1.99173 -7.83464 773405000.0
780 -0.02795 0.000326412 -500.213 3305.7 224.698 224.689 5.55904 2.69291 773398000.0
779 -0.02785 0.00032641 -500.213 3305.69 224.696 224.689 5.21615 0.68779 773389000.0
778 -0.02775 0.000326412 -500.209 3305.75 224.702 224.688 7.06911 0.786229 773377000.0
777 -0.02765 0.000326421 -500.199 3305.67 224.702 224.693 -0.745478 0.608517 773391000.0
776 -0.02755 0.000326414 -500.21 3305.75 224.703 224.69 7.82489 6.96088 773384000.0
775 -0.02745 0.000326418 -500.198 3305.78 224.708 224.693 7.93688 5.40446 773407000.0
774 -0.02735 0.000326417 -500.207 3305.83 224.71 224.692 10.0464 10.1879 773406000.0
773 -0.02725 0.000326424 -500.191 3305.75 224.71 224.693 8.60054 11.1982 773393000.0
772 -0.02715 0.000326425 -500.191 3305.74 224.71 224.694 3.01314 7.09235 773397000.0
771 -0.02705 0.000326422 -500.194 3305.75 224.708 224.692 5.94486 12.3379 773383000.0
770 -0.02695 0.000326424 -500.19 3305.74 224.709 224.693 3.82438 4.41125 773384000.0
769 -0.02685 0.000326409 -500.213 3305.73 224.698 224.687 7.09503 13.1546 773370000.0
768 -0.02675 0.000326414 -500.207 3305.72 224.701 224.691 6.67204 14.5398 773386000.0
767 -0.02665 0.000326424 -500.195 3305.66 224.704 224.692 2.50218 9.09687 773393000.0
766 -0.02655 0.000326415 -500.202 3305.69 224.699 224.691 2.81147 13.2392 773406000.0
765 -0.02645 0.000326439 -500.168 3305.72 224.718 224.697 -2.201 -3.66053 773414000.0
764 -0.02635 0.000326444 -500.161 3305.66 224.718 224.698 -7.13781 -7.77729 773414000.0
763 -0.02625 0.000326418 -500.204 3305.81 224.71 224.692 9.02761 17.7477 773402000.0
762 -0.02615 0.000326441 -500.163 3305.63 224.713 224.695 -3.04838 -1.90129 773383000.0
761 -0.02605 0.000326453 -500.145 3305.62 224.721 224.701 -10.3121 -13.0135 773409000.0
760 -0.02595 0.000326439 -500.172 3305.57 224.707 224.695 -9.55717 -2.51863 773389000.0
759 -0.02585 0.000326424 -500.189 3305.69 224.706 224.693 2.27184 9.72259 773393000.0
758 -0.02575 0.000326431 -500.177 3305.63 224.706 224.692 -5.01052 0.349561 773385000.0
757 -0.02565 0.000326438 -500.176 3305.53 224.704 224.699 -10.0458 -3.86049 773411000.0
756 -0.02555 0.000326422 -500.195 3305.58 224.697 224.693 -0.845098 11.7061 773393000.0
755 -0.02545 0.000326433 -500.182 3305.62 224.707 224.698 -6.55993 3.01001 773426000.0
754 -0.02535 0.000326429 -500.18 3305.67 224.708 224.693 1.50852 8.07565 773397000.0
753 -0.02525 0.000326435 -500.179 3305.66 224.712 224.696 -2.64638 4.77704 773414000.0
752 -0.02515 0.000326428 -500.186 3305.71 224.71 224.692 2.53455 11.6627 773399000.0
751 -0.02505 0.000326442 -500.167 3305.65 224.715 224.698 -5.16385 -0.442856 773407000.0
750 -0.02495 0.000326438 -500.171 3305.68 224.715 224.695 -3.84036 0.25155 773404000.0
749 -0.02485 0.00032645 -500.15 3305.57 224.715 224.7 -14.0423 -3.94866 773411000.0
748 -0.02475 0.000326445 -500.164 3305.63 224.715 224.698 -6.73975 -0.656847 773408000.0
747 -0.02465 0.000326444 -500.162 3305.57 224.711 224.697 -9.82932 -3.31846 773411000.0
746 -0.02455 0.000326465 -500.128 3305.47 224.718 224.701 -23.9471 -25.9308 773396000.0
745 -0.02445 0.000326459 -500.14 3305.51 224.717 224.699 -15.9002 -21.2857 773374000.0
744 -0.02435 0.000326453 -500.147 3305.59 224.719 224.7 -10.049 -21.3459 773397000.0
743 -0.02425 0.000326445 -500.164 3305.57 224.712 224.699 -10.4539 -14.0172 773381000.0
742 -0.02415 0.000326441 -500.166 3305.47 224.702 224.696 -9.15546 -5.91823 773376000.0
741 -0.02405 0.000326441 -500.169 3305.47 224.703 224.696 -11.3095 -11.4786 773381000.0
740 -0.02395 0.000326433 -500.179 3305.55 224.703 224.693 -5.0698 -5.56252 773389000.0
739 -0.02385 0.000326434 -500.178 3305.62 224.708 224.696 -3.11369 -7.1926 773401000.0
738 -0.02375 0.000326446 -500.158 3305.63 224.717 224.698 -7.22405 -17.675 773398000.0
737 -0.02365 0.00032644 -500.168 3305.6 224.71 224.696 -4.98979 -4.35902 773405000.0
736 -0.02355 0.000326447 -500.158 3305.54 224.711 224.698 -11.7408 -18.329 773391000.0
735 -0.02345 0.000326465 -500.131 3305.65 224.731 224.701 -12.6923 -34.7298 773410000.0
734 -0.02335 0.000326432 -500.183 3305.6 224.705 224.694 -2.1478 -7.25809 773389000.0
733 -0.02325 0.000326445 -500.161 3305.49 224.706 224.698 -12.4221 -17.5533 773394000.0
732 -0.02315 0.000326448 -500.157 3305.51 224.71 224.698 -12.0768 -20.5302 773387000.0
731 -0.02305 0.000326439 -500.168 3305.55 224.707 224.695 -7.49743 -12.3704 773387000.0
730 -0.02295 0.000326445 -500.161 3305.54 224.71 224.697 -7.92696 -9.67328 773385000.0
729 -0.02285 0.000326447 -500.162 3305.5 224.709 224.697 -13.3708 -12.7783 773386000.0
728 -0.02275 0.000326443 -500.161 3305.52 224.707 224.695 -10.4032 -11.9151 773373000.0
727 -0.02265 0.000326447 -500.163 3305.5 224.708 224.698 -10.8988 -10.3024 773392000.0
726 -0.02255 0.000326459 -500.139 3305.53 224.719 224.7 -13.6709 -20.7839 773400000.0
725 -0.02245 0.000326457 -500.141 3305.7 224.729 224.698 -5.42916 -17.7264 773398000.0
724 -0.02235 0.000326458 -500.143 3305.6 224.723 224.699 -10.6398 -20.1689 773392000.0
723 -0.02225 0.000326456 -500.145 3305.56 224.718 224.7 -9.93575 -16.1731 773393000.0
722 -0.02215 0.000326461 -500.141 3305.49 224.717 224.7 -16.0954 -21.7169 773387000.0
721 -0.02205 0.000326454 -500.147 3305.55 224.716 224.699 -9.63486 -13.8786 773384000.0
720 -0.02195 0.000326461 -500.139 3305.54 224.721 224.702 -13.0452 -18.1788 773398000.0
719 -0.02185 0.000326454 -500.15 3305.55 224.717 224.697 -8.1911 -9.19326 773386000.0
718 -0.02175 0.000326446 -500.162 3305.56 224.711 224.698 -6.66795 -4.80592 773393000.0
717 -0.02165 0.000326446 -500.163 3305.57 224.713 224.695 -7.24356 -5.42402 773374000.0
716 -0.02155 0.000326444 -500.166 3305.47 224.705 224.696 -11.4963 -2.34339 773377000.0
715 -0.02145 0.000326449 -500.155 3305.61 224.718 224.696 -7.32156 -13.3056 773376000.0
714 -0.02135 0.000326443 -500.162 3305.57 224.711 224.694 -3.46963 -1.40907 773367000.0
713 -0.02125 0.000326455 -500.151 3305.48 224.713 224.699 -13.5901 -10.7214 773369000.0
712 -0.02115 0.000326466 -500.128 3305.39 224.714 224.7 -22.1352 -24.0993 773371000.0
711 -0.02105 0.000326468 -500.128 3305.42 224.717 224.701 -20.1182 -26.9673 773368000.0
710 -0.02095 0.000326458 -500.146 3305.44 224.712 224.698 -15.7157 -19.4717 773361000.0
709 -0.02085 0.00032646 -500.144 3305.46 224.714 224.701 -16.6859 -22.5054 773372000.0
708 -0.02075 0.000326448 -500.159 3305.52 224.711 224.695 -7.47159 -13.2504 773349000.0
707 -0.02065 0.000326449 -500.158 3305.52 224.712 224.697 -10.3041 -16.4334 773358000.0
706 -0.02055 0.00032644 -500.169 3305.59 224.71 224.695 -5.7168 -4.33347 773360000.0
705 -0.02045 0.000326426 -500.194 3305.56 224.698 224.69 1.24359 11.7758 773336000.0
704 -0.02035 0.000326423 -500.198 3305.7 224.706 224.691 10.5011 13.0443 773361000.0
703 -0.02025 0.000326436 -500.177 3305.65 224.711 224.692 1.87614 3.58446 773361000.0
702 -0.02015 0.000326438 -500.176 3305.57 224.708 224.694 -3.36067 3.52686 773354000.0
701 -0.02005 0.000326426 -500.193 3305.56 224.698 224.69 1.38206 17.9293 773340000.0
700 -0.01995 0.00032643 -500.186 3305.57 224.702 224.693 -0.847373 15.7934 773359000.0
699 -0.01985 0.000326444 -500.166 3305.62 224.715 224.694 -0.142543 4.77439 773353000.0
698 -0.01975 0.000326437 -500.179 3305.61 224.709 224.695 0.0544257 9.64552 773384000.0
697 -0.01965 0.000326445 -500.167 3305.59 224.713 224.696 -3.34836 1.56206 773376000.0
696 -0.01955 0.000326427 -500.19 3305.57 224.699 224.69 2.33213 17.3784 773354000.0
695 -0.01945 0.000326439 -500.175 3305.59 224.709 224.696 0.581697 14.2496 773376000.0
694 -0.01935 0.000326446 -500.165 3305.7 224.722 224.694 1.34329 3.65224 773361000.0
693 -0.01925 0.000326446 -500.161 3305.61 224.715 224.696 -1.20339 5.85794 773363000.0
692 -0.01915 0.000326456 -500.151 3305.67 224.727 224.698 -1.82911 -7.86217 773369000.0
691 -0.01905 0.00032644 -500.173 3305.73 224.72 224.695 8.26133 7.77949 773362000.0
690 -0.01895 0.000326453 -500.153 3305.56 224.717 224.697 -7.96262 -8.68227 773357000.0
689 -0.01885 0.000326462 -500.136 3305.48 224.717 224.699 -12.2548 -12.4594 773342000.0
688 -0.01875 0.000326452 -500.158 3305.51 224.713 224.697 -10.5735 -8.78816 773350000.0
687 -0.01865 0.000326449 -500.16 3305.55 224.713 224.695 -4.41788 -6.37447 773332000.0
686 -0.01855 0.000326454 -500.15 3305.49 224.713 224.695 -8.94986 -15.6993 773328000.0
685 -0.01845 0.000326436 -500.178 3305.64 224.71 224.693 3.16261 -0.371042 773339000.0
684 -0.01835 0.000326436 -500.183 3305.6 224.708 224.691 0.954797 -5.25339 773330000.0
683 -0.01825 0.000326437 -500.178 3305.57 224.706 224.694 0.559348 -7.54699 773331000.0
682 -0.01815 0.000326435 -500.179 3305.61 224.708 224.693 5.75165 2.06406 773322000.0
681 -0.01805 0.000326442 -500.171 3305.59 224.711 224.695 -0.355118 -5.65153 773335000.0
680 -0.01795 0.000326447 -500.162 3305.45 224.705 224.695 -7.77993 -6.75614 773317000.0
679 -0.01785 0.000326456 -500.146 3305.42 224.71 224.696 -13.5225 -17.6741 773308000.0
678 -0.01775 0.000326448 -500.164 3305.54 224.712 224.695 -5.48873 -7.74979 773318000.0
677 -0.01765 0.00032644 -500.172 3305.59 224.71 224.693 -0.00202889 -3.04628 773316000.0
676 -0.01755 0.000326441 -500.171 3305.65 224.715 224.693 3.4817 -6.86287 773334000.0
675 -0.01745 0.000326441 -500.175 3305.62 224.713 224.692 1.12198 -11.0024 773323000.0
674 -0.01735 0.000326443 -500.168 3305.69 224.719 224.695 5.80253 -5.08111 773336000.0
673 -0.01725 0.000326427 -500.195 3305.64 224.704 224.691 8.54244 2.84275 773329000.0
672 -0.01715 0.000326433 -500.185 3305.53 224.701 224.69 -0.0735806 -5.42954 773323000.0
671 -0.01705 0.000326438 -500.179 3305.44 224.698 224.692 -5.83102 -13.8193 773313000.0
670 -0.01695 0.000326443 -500.168 3305.5 224.705 224.693 -5.20778 -16.9808 773323000.0
669 -0.01685 0.00032644 -500.179 3305.46 224.701 224.694 -5.35644 -14.7506 773317000.0
668 -0.01675 0.000326422 -500.204 3305.55 224.695 224.69 3.32544 -1.06611 773315000.0
667 -0.01665 0.000326411 -500.219 3305.6 224.69 224.687 10.4735 11.1928 773314000.0
666 -0.01655 0.00032642 -500.204 3305.54 224.692 224.688 7.16582 8.21139 773307000.0
665 -0.01645 0.00032642 -500.205 3305.6 224.697 224.689 7.94281 2.3083 773319000.0
664 -0.01635 0.00032644 -500.176 3305.53 224.706 224.694 1.35449 -14.5792 773333000.0
663 -0.01625 0.000326425 -500.198 3305.53 224.696 224.689 4.11992 -5.25579 773317000.0
662 -0.01615 0.000326405 -500.228 3305.56 224.684 224.685 9.8676 12.7838 773320000.0
661 -0.01605 0.000326411 -500.222 3305.55 224.687 224.688 10.1337 15.2798 773324000.0
660 -0.01595 0.000326425 -500.2 3305.43 224.689 224.689 -2.26223 6.05683 773305000.0
659 -0.01585 0.000326418 -500.208 3305.42 224.683 224.689 -0.858315 13.015 773304000.0
658 -0.01575 0.000326425 -500.2 3305.41 224.687 224.69 -3.88732 5.64463 773293000.0
657 -0.01565 0.000326425 -500.197 3305.5 224.693 224.688 2.86338 11.0168 773287000.0
656 -0.01555 0.000326414 -500.215 3305.5 224.686 224.687 5.71972 17.3154 773287000.0
655 -0.01545 0.000326449 -500.166 3305.42 224.705 224.698 -11.1256 -10.5952 773308000.0
654 -0.01535 0.000326461 -500.141 3305.33 224.707 224.697 -16.2303 -18.8764 773288000.0
653 -0.01525 0.000326437 -500.182 3305.52 224.703 224.694 -1.7013 2.25978 773284000.0
652 -0.01515 0.000326432 -500.186 3305.53 224.701 224.69 1.44604 5.58995 773268000.0
651 -0.01505 0.000326424 -500.199 3305.5 224.693 224.69 2.80886 12.7499 773279000.0
650 -0.01495 0.000326419 -500.21 3305.57 224.694 224.69 7.56169 14.6212 773278000.0
649 -0.01485 0.000326427 -500.197 3305.51 224.696 224.691 1.48179 6.14942 773266000.0
648 -0.01475 0.000326425 -500.199 3305.59 224.7 224.692 7.43961 12.9409 773282000.0
647 -0.01465 0.000326416 -500.214 3305.59 224.694 224.69 9.94886 18.3323 773278000.0
646 -0.01455 0.000326416 -500.212 3305.67 224.699 224.686 15.7829 19.7591 773262000.0
645 -0.01445 0.000326417 -500.208 3305.65 224.698 224.689 12.0045 11.0998 773277000.0
644 -0.01435 0.000326427 -500.198 3305.64 224.705 224.693 8.72298 3.70009 773277000.0
643 -0.01425 0.00032639 -500.25 3305.9 224.696 224.681 35.265 35.9628 773265000.0
642 -0.01415 0.000326387 -500.258 3305.86 224.692 224.681 34.0345 34.4695 773265000.0
641 -0.01405 0.000326389 -500.252 3305.83 224.691 224.682 29.4602 32.999 773275000.0
640 -0.01395 0.000326387 -500.257 3305.79 224.687 224.681 29.6778 38.396 773264000.0
639 -0.01385 0.00032639 -500.25 3305.8 224.69 224.68 31.495 36.9151 773248000.0
638 -0.01375 0.000326379 -500.269 3305.8 224.682 224.681 35.1954 48.9957 773254000.0
637 -0.01365 0.000326375 -500.276 3305.85 224.683 224.676 37.0323 50.288 773228000.0
636 -0.01355 0.000326387 -500.257 3305.8 224.688 224.682 35.3734 43.6243 773224000.0
635 -0.01345 0.000326401 -500.235 3305.74 224.693 224.686 21.488 25.6349 773222000.0
634 -0.01335 0.000326406 -500.224 3305.7 224.694 224.688 18.0254 21.493 773221000.0
633 -0.01325 0.000326406 -500.222 3305.72 224.695 224.687 21.9512 25.3469 773205000.0
632 -0.01315 0.000326396 -500.243 3305.74 224.69 224.686 26.235 32.9549 773191000.0
631 -0.01305 0.000326392 -500.242 3305.82 224.692 224.684 28.7073 35.0881 773174000.0
630 -0.01295 0.000326382 -500.265 3305.88 224.69 224.685 36.6766 45.8086 773183000.0
629 -0.01285 0.000326393 -500.243 3305.75 224.688 224.683 25.916 29.345 773160000.0
628 -0.01275 0.000326396 -500.239 3305.8 224.694 224.687 28.9228 27.306 773170000.0
627 -0.01265 0.000326395 -500.243 3305.79 224.692 224.687 27.6339 27.1547 773158000.0
626 -0.01255 0.000326394 -500.237 3305.8 224.693 224.685 29.1522 30.8813 773150000.0
625 -0.01245 0.000326383 -500.26 3305.83 224.687 224.681 31.7473 37.3639 773133000.0
624 -0.01235 0.00032637 -500.278 3305.97 224.687 224.681 45.3401 50.1648 773138000.0
623 -0.01225 0.000326355 -500.302 3305.99 224.678 224.676 52.9626 61.5852 773118000.0
622 -0.01215 0.000326359 -500.298 3305.96 224.679 224.677 47.1302 50.9745 773110000.0
621 -0.01205 0.000326359 -500.297 3305.92 224.677 224.676 47.0479 55.8331 773095000.0
620 -0.01195 0.000326369 -500.281 3305.78 224.674 224.68 36.9388 47.5705 773084000.0
619 -0.01185 0.000326375 -500.271 3305.82 224.681 224.681 35.8035 40.6206 773079000.0
618 -0.01175 0.000326354 -500.305 3305.82 224.666 224.676 43.643 57.4274 773057000.0
617 -0.01165 0.000326364 -500.285 3305.83 224.674 224.678 42.6195 52.0997 773050000.0
616 -0.01155 0.000326362 -500.29 3305.92 224.678 224.678 46.6666 50.172 773049000.0
615 -0.01145 0.000326341 -500.318 3305.98 224.668 224.67 56.3974 65.0568 773009000.0
614 -0.01135 0.000326328 -500.345 3305.95 224.657 224.671 60.6606 77.5451 773013000.0
613 -0.01125 0.000326309 -500.37 3306.0 224.648 224.665 67.3163 85.7548 772983000.0
612 -0.01115 0.00032631 -500.366 3306.15 224.659 224.665 73.1754 85.2756 772974000.0
611 -0.01105 0.000326293 -500.391 3306.24 224.653 224.662 85.1241 100.688 772959000.0
610 -0.01095 0.000326275 -500.422 3306.31 224.645 224.66 93.2132 115.536 772938000.0
609 -0.01085 0.000326272 -500.421 3306.35 224.646 224.655 98.5028 121.911 772913000.0
608 -0.01075 0.000326245 -500.465 3306.29 224.623 224.647 105.747 142.848 772867000.0
607 -0.01065 0.000326233 -500.483 3306.35 224.619 224.646 112.667 145.329 772861000.0
606 -0.01055 0.000326225 -500.496 3306.41 224.618 224.646 118.538 151.975 772841000.0
605 -0.01045 0.000326223 -500.5 3306.47 224.62 224.644 122.264 154.018 772815000.0
604 -0.01035 0.000326206 -500.524 3306.52 224.612 224.64 129.879 166.9 772783000.0
603 -0.01025 0.0003262 -500.529 3306.65 224.617 224.638 139.688 168.241 772762000.0
602 -0.01015 0.000326192 -500.545 3306.68 224.613 224.634 141.857 167.86 772720000.0
601 -0.01005 0.000326183 -500.561 3306.58 224.6 224.634 138.983 166.744 772678000.0
600 -0.00995 0.000326167 -500.58 3306.62 224.592 224.629 148.477 174.114 772628000.0
599 -0.00985 0.000326147 -500.61 3306.64 224.58 224.623 152.82 177.306 772581000.0
598 -0.00975 0.000326104 -500.676 3306.75 224.558 224.613 176.213 204.355 772530000.0
597 -0.00965 0.000326078 -500.714 3306.72 224.538 224.607 183.212 217.452 772476000.0
596 -0.00955 0.00032606 -500.743 3306.87 224.535 224.604 196.365 227.195 772447000.0
595 -0.00945 0.000326023 -500.794 3307.1 224.525 224.593 220.576 250.251 772390000.0
594 -0.00935 0.00032601 -500.821 3307.2 224.523 224.592 228.594 246.364 772360000.0
593 -0.00925 0.000325981 -500.86 3307.14 224.499 224.584 237.063 264.608 772287000.0
592 -0.00915 0.000325957 -500.897 3307.33 224.496 224.581 253.294 279.686 772238000.0
591 -0.00905 0.000325937 -500.924 3307.27 224.477 224.57 259.814 285.165 772148000.0
590 -0.00895 0.000325899 -500.984 3307.38 224.459 224.563 276.402 301.103 772104000.0
589 -0.00885 0.000325851 -501.06 3307.55 224.437 224.551 302.194 326.293 772028000.0
588 -0.00875 0.000325811 -501.117 3307.59 224.412 224.542 317.438 343.448 771961000.0
587 -0.00865 0.000325758 -501.195 3307.71 224.384 224.528 340.827 372.974 771853000.0
586 -0.00855 0.000325738 -501.226 3307.76 224.374 224.524 352.653 371.383 771789000.0
585 -0.00845 0.000325709 -501.272 3307.9 224.363 224.519 365.081 375.389 771711000.0
584 -0.00835 0.000325643 -501.367 3308.01 224.325 224.499 396.3 414.385 771597000.0
583 -0.00825 0.000325604 -501.431 3308.03 224.3 224.492 407.023 422.413 771504000.0
582 -0.00815 0.00032555 -501.511 3308.23 224.276 224.48 439.724 449.642 771402000.0
581 -0.00805 0.000325492 -501.602 3308.36 224.245 224.464 461.511 465.308 771282000.0
580 -0.00795 0.000325412 -501.718 3308.6 224.207 224.443 503.483 506.242 771157000.0
579 -0.00785 0.000325365 -501.793 3308.69 224.18 224.434 520.132 516.831 771045000.0
578 -0.00775 0.000325316 -501.865 3308.73 224.149 224.421 538.894 521.748 770925000.0
577 -0.00765 0.000325229 -501.995 3308.94 224.103 224.397 579.745 564.687 770766000.0
576 -0.00755 0.000325154 -502.121 3309.16 224.066 224.38 615.027 583.688 770618000.0
575 -0.00745 0.00032505 -502.27 3309.24 224.0 224.354 653.976 626.523 770428000.0
574 -0.00735 0.000324956 -502.418 3309.53 223.955 224.332 702.286 665.016 770264000.0
573 -0.00725 0.000324846 -502.582 3309.64 223.887 224.304 747.218 715.047 770062000.0
572 -0.00715 0.000324739 -502.747 3309.81 223.824 224.279 787.859 749.067 769866000.0
571 -0.00705 0.000324617 -502.933 3309.92 223.748 224.247 838.044 792.785 769639000.0
570 -0.00695 0.000324485 -503.133 3310.21 223.677 224.213 897.209 843.36 769405000.0
569 -0.00685 0.000324343 -503.353 3310.56 223.602 224.177 961.843 892.846 769167000.0
568 -0.00675 0.000324198 -503.567 3310.67 223.51 224.143 1017.45 944.327 768915000.0
567 -0.00665 0.00032404 -503.818 3311.03 223.425 224.102 1089.81 1000.03 768639000.0
566 -0.00655 0.000323874 -504.066 3311.22 223.323 224.06 1155.22 1055.44 768328000.0
565 -0.00645 0.00032368 -504.365 3311.48 223.207 224.011 1235.22 1130.13 768005000.0
564 -0.00635 0.000323489 -504.663 3311.74 223.093 223.965 1311.94 1190.64 767673000.0
563 -0.00625 0.000323297 -504.954 3311.97 222.976 223.917 1388.02 1247.26 767318000.0
562 -0.00615 0.000323083 -505.284 3312.17 222.842 223.86 1470.33 1306.64 766914000.0
561 -0.00605 0.000322855 -505.634 3312.51 222.707 223.805 1565.55 1375.92 766529000.0
560 -0.00595 0.000322601 -506.028 3312.79 222.551 223.741 1668.59 1454.47 766093000.0
559 -0.00585 0.00032234 -506.437 3313.01 222.385 223.672 1767.3 1523.4 765624000.0
558 -0.00575 0.000322039 -506.897 3313.45 222.208 223.597 1892.2 1619.77 765140000.0
557 -0.00565 0.000321716 -507.397 3313.79 222.008 223.514 2021.05 1725.94 764601000.0
556 -0.00555 0.000321377 -507.93 3314.2 221.801 223.429 2158.02 1827.13 764046000.0
555 -0.00545 0.000321025 -508.479 3314.53 221.58 223.335 2296.57 1922.79 763429000.0
554 -0.00535 0.000320642 -509.074 3314.89 221.34 223.237 2445.72 2026.17 762801000.0
553 -0.00525 0.000320215 -509.748 3315.37 221.077 223.129 2619.63 2153.25 762129000.0
552 -0.00515 0.000319776 -510.437 3315.72 220.797 223.017 2785.71 2273.49 761395000.0
551 -0.00505 0.000319301 -511.181 3316.02 220.489 222.892 2968.5 2406.81 760612000.0
550 -0.00495 0.000318784 -512.0 3316.39 220.157 222.758 3167.48 2548.49 759769000.0
549 -0.00485 0.000318208 -512.913 3317.11 219.807 222.611 3405.49 2728.55 758907000.0
548 -0.00475 0.000317609 -513.869 3317.58 219.424 222.452 3639.5 2901.51 757946000.0
547 -0.00465 0.000316973 -514.882 3318.08 219.017 222.288 3886.36 3080.95 756958000.0
546 -0.00455 0.000316277 -516.001 3318.5 218.564 222.102 4155.0 3284.21 755847000.0
545 -0.00445 0.000315564 -517.152 3318.8 218.091 221.913 4421.92 3469.95 754692000.0
544 -0.00435 0.000314802 -518.382 3319.25 217.595 221.714 4714.57 3665.28 753476000.0
543 -0.00425 0.000313958 -519.756 3319.8 217.047 221.487 5043.64 3905.76 752150000.0
542 -0.00415 0.000313043 -521.254 3320.34 216.449 221.243 5399.65 4171.84 750745000.0
541 -0.00405 0.000312097 -522.81 3320.82 215.827 220.984 5766.37 4424.11 749240000.0
540 -0.00395 0.000311091 -524.482 3321.15 215.152 220.716 6146.31 4694.2 747661000.0
539 -0.00385 0.000310001 -526.3 3321.71 214.434 220.414 6574.6 4999.98 745952000.0
538 -0.00375 0.000308825 -528.271 3322.2 213.653 220.092 7027.93 5333.2 744144000.0
537 -0.00365 0.00030756 -530.416 3322.77 212.814 219.743 7524.47 5707.82 742209000.0
536 -0.00355 0.000306234 -532.677 3323.25 211.927 219.369 8041.86 6082.3 740141000.0
535 -0.00345 0.000304808 -535.14 3323.69 210.968 218.968 8597.63 6504.23 737947000.0
534 -0.00335 0.00030329 -537.776 3324.09 209.942 218.536 9191.25 6959.95 735615000.0
533 -0.00325 0.000301695 -540.577 3324.42 208.859 218.076 9813.66 7428.61 733134000.0
532 -0.00315 0.000300013 -543.571 3324.91 207.726 217.592 10484.6 7928.42 730546000.0
531 -0.00305 0.000298211 -546.803 3325.28 206.501 217.062 11200.8 8485.76 727760000.0
530 -0.00295 0.000296307 -550.272 3325.5 205.196 216.496 11956.2 9079.57 724803000.0
529 -0.00285 0.000294292 -553.985 3325.79 203.818 215.889 12767.1 9719.66 721679000.0
528 -0.00275 0.000292155 -557.979 3325.74 202.335 215.238 13621.3 10421.0 718348000.0
527 -0.00265 0.000289927 -562.205 3325.94 200.804 214.551 14533.0 11153.5 714889000.0
526 -0.00255 0.000287544 -566.799 3325.96 199.155 213.801 15510.9 11981.6 711184000.0
525 -0.00245 0.000285061 -571.66 3325.83 197.427 213.013 16534.3 12853.5 707320000.0
524 -0.00235 0.000282461 -576.847 3325.54 195.61 212.168 17615.5 13783.8 703223000.0
523 -0.00225 0.000279748 -582.363 3325.2 193.711 211.272 18759.3 14778.0 698935000.0
522 -0.00215 0.0002769 -588.266 3324.55 191.702 210.315 19963.9 15862.7 694447000.0
521 -0.00205 0.000273917 -594.572 3323.73 189.589 209.29 21239.3 17036.4 689709000.0
520 -0.00195 0.000270811 -601.294 3322.71 187.383 208.205 22583.3 18305.5 684789000.0
519 -0.00185 0.000267575 -608.459 3321.34 185.067 207.042 23993.6 19676.8 679614000.0
518 -0.00175 0.000264249 -616.0 3319.8 182.682 205.824 25467.6 21113.9 674277000.0
517 -0.00165 0.000260795 -624.035 3318.12 180.203 204.524 27023.4 22667.3 668703000.0
516 -0.00155 0.000257239 -632.531 3315.82 177.622 203.155 28633.3 24326.4 662948000.0
515 -0.00145 0.000253569 -641.549 3312.96 174.937 201.703 30308.3 26105.4 656962000.0
514 -0.00135 0.00024981 -651.043 3309.99 172.189 200.171 32063.2 27988.3 650809000.0
513 -0.00125 0.000245962 -661.078 3306.4 169.353 198.559 33875.8 29986.3 644488000.0
512 -0.00115 0.000242044 -671.601 3301.98 166.432 196.866 35731.1 32084.2 637959000.0
511 -0.00105 0.000238049 -682.696 3297.04 163.441 195.086 37650.0 34307.6 631308000.0
510 -0.00095 0.000233988 -694.349 3291.37 160.376 193.215 39623.7 36648.3 624490000.0
509 -0.00085 0.000229861 -706.602 3284.9 157.238 191.25 41653.4 39126.8 617561000.0
508 -0.00075 0.000225702 -719.421 3277.66 154.052 189.203 43723.5 41706.9 610552000.0
507 -0.00065 0.000221513 -732.786 3269.32 150.809 187.063 45819.9 44392.9 603432000.0
506 -0.00055 0.000217286 -746.793 3259.99 147.509 184.827 47955.8 47203.9 596263000.0
505 -0.00045 0.00021305 -761.386 3249.54 144.169 182.5 50113.3 50116.4 589049000.0
504 -0.00035 0.00020881 -776.568 3237.88 140.793 180.079 52284.7 53121.5 581815000.0
503 -0.00025 0.000204568 -792.379 3225.0 137.384 177.562 54468.4 56227.0 574597000.0
502 -0.00015 0.00020035 -808.755 3210.86 133.962 174.956 56651.7 59399.3 567412000.0
501 -5e-05 0.000196115 -825.901 3195.02 130.483 172.232 58839.8 62707.5 560277000.0
500 5e-05 0.000191893 -844.035 3176.97 126.953 169.303 61026.4 66147.4 553051000.0
499 0.00015 0.000187856 -862.446 3156.67 123.488 166.282 63074.7 69422.6 545693000.0
498 0.00025 0.000183947 -881.05 3134.6 120.073 163.229 65005.9 72572.9 538373000.0
497 0.00035 0.000180133 -899.957 3110.9 116.694 160.126 66849.3 75654.9 531157000.0
496 0.00045 0.000176413 -919.199 3085.27 113.343 156.973 68587.6 78656.2 524026000.0
495 0.00055 0.000172799 -938.666 3058.05 110.041 153.778 70219.8 81542.4 516980000.0
494 0.00065 0.000169298 -958.341 3029.13 106.792 150.555 71733.2 84295.6 510022000.0
493 0.00075 0.000165892 -978.257 2998.4 103.582 147.29 73127.2 86927.0 503140000.0
492 0.00085 0.000162587 -998.381 2965.92 100.419 143.993 74399.3 89431.7 496366000.0
491 0.00095 0.000159382 -1018.69 2931.91 97.3104 140.666 75550.7 91786.5 489682000.0
490 0.00105 0.000156307 -1038.96 2896.32 94.2747 137.347 76549.1 93934.1 483045000.0
489 0.00115 0.000153331 -1059.35 2859.04 91.2896 134.008 77412.9 95917.1 476462000.0
488 0.00125 0.000150461 -1079.76 2820.18 88.3631 130.665 78128.3 97707.4 469905000.0
487 0.00135 0.00014769 -1100.23 2779.73 85.4913 127.312 78701.9 99315.1 463382000.0
486 0.00145 0.000145036 -1120.58 2738.1 82.6976 123.982 79134.6 100704.0 456883000.0
485 0.00155 0.000142481 -1140.86 2695.25 79.9696 120.66 79425.6 101889.0 450388000.0
484 0.00165 0.000140028 -1161.04 2651.13 77.3062 117.357 79574.6 102866.0 443881000.0
483 0.00175 0.000137669 -1181.12 2605.75 74.7032 114.07 79581.4 103641.0 437337000.0
482 0.00185 0.000135414 -1200.97 2559.47 72.1745 110.82 79450.4 104200.0 430757000.0
481 0.00195 0.000133252 -1220.64 2512.12 69.7081 107.602 79180.6 104558.0 424117000.0
480 0.00205 0.000131186 -1240.04 2464.24 67.3193 104.427 78792.7 104708.0 417439000.0
479 0.00215 0.000129211 -1259.15 2415.73 65.0008 101.298 78280.1 104656.0 410677000.0
478 0.00225 0.000127326 -1277.96 2366.77 62.7541 98.2192 77658.4 104420.0 403876000.0
477 0.00235 0.000125521 -1296.48 2317.26 60.5704 95.1884 76921.7 104001.0 396980000.0
476 0.00245 0.000123795 -1314.7 2267.42 58.4527 92.2046 76081.4 103403.0 389986000.0
475 0.00255 0.000122155 -1332.52 2217.41 56.4063 89.289 75145.3 102641.0 382915000.0
474 0.00265 0.00012059 -1349.94 2167.53 54.4311 86.4376 74129.0 101727.0 375803000.0
473 0.00275 0.000119105 -1366.92 2117.73 52.5255 83.6584 73029.8 100665.0 368594000.0
472 0.00285 0.000117675 -1383.65 2067.74 50.6701 80.9185 71853.0 99470.7 361306000.0
471 0.00295 0.000116323 -1399.87 2018.48 48.8943 78.2642 70627.1 98153.6 353997000.0
470 0.00305 0.000115028 -1415.73 1969.3 47.1723 75.6669 69335.5 96725.9 346616000.0
469 0.00315 0.000113796 -1431.18 1920.51 45.5107 73.1375 67993.8 95196.5 339188000.0
468 0.00325 0.000112623 -1446.22 1872.26 43.9099 70.6759 66610.4 93576.6 331727000.0
467 0.00335 0.000111505 -1460.82 1824.56 42.3663 68.2845 65187.4 91876.1 324230000.0
466 0.00345 0.000110443 -1474.98 1777.53 40.8812 65.9672 63735.0 90108.9 316719000.0
465 0.00355 0.000109425 -1488.79 1730.96 39.4432 63.7051 62252.0 88279.0 309192000.0
464 0.00365 0.000108461 -1502.12 1685.38 38.0664 61.5238 60757.3 86401.4 301683000.0
463 0.00375 0.000107543 -1515.05 1640.5 36.739 59.4046 59245.9 84476.8 294172000.0
462 0.00385 0.000106665 -1527.6 1596.47 35.4612 57.3502 57727.7 82519.5 286698000.0
461 0.00395 0.000105835 -1539.67 1553.61 34.2407 55.3744 56218.7 80546.4 279308000.0
460 0.00405 0.000105039 -1551.43 1511.36 33.0591 53.4495 54700.2 78548.1 271938000.0
459 0.00415 0.000104283 -1562.75 1470.16 31.9262 51.5947 53189.1 76541.1 264625000.0
458 0.00425 0.000103566 -1573.64 1430.11 30.8431 49.8102 51693.7 74531.9 257399000.0
457 0.00435 0.000102883 -1584.18 1390.84 29.7983 48.0839 50201.4 72521.4 250219000.0
456 0.00445 0.000102232 -1594.33 1352.66 28.7968 46.4225 48729.7 70525.3 243157000.0
455 0.00455 0.000101613 -1604.12 1315.54 27.837 44.8174 47278.9 68534.7 236180000.0
454 0.00465 0.000101021 -1613.56 1279.4 26.9146 43.2713 45846.8 66564.3 229319000.0
453 0.00475 0.000100459 -1622.68 1244.24 26.0293 41.7787 44437.5 64611.9 222563000.0