ITEM: TIMESTEP
10000
ITEM: NUMBER OF CELLS
800
ITEM: BOX BOUNDS os pp pp
-0.05 0.03
-0.001 0.001
-0.001 0.001
ITEM: CELLS id f_1[1] f_1[2] f_1[3] f_1[4] f_1[5] f_1[6] f_1[7] f_1[8] f_1[9] 
1 -0.04995 8.83404e-05 1846.92 273.111 5.02423 5.02276 -0.0346997 -0.0385288 1.42673e+06 
2 -0.04985 8.83411e-05 1846.92 273.112 5.02428 5.0228 -0.0741771 -0.0965781 1.42675e+06 
3 -0.04975 8.83411e-05 1846.92 273.112 5.02427 5.02283 -0.0741668 -0.107248 1.4268e+06 
4 -0.04965 8.83414e-05 1846.92 273.11 5.02426 5.0229 -0.108694 -0.163777 1.42684e+06 
5 -0.04955 8.83421e-05 1846.92 273.114 5.02436 5.02297 -0.107663 -0.194405 1.42691e+06 
6 -0.04945 8.83402e-05 1846.92 273.113 5.02424 5.02291 -0.133176 -0.2309 1.42697e+06 
7 -0.04935 8.83418e-05 1846.92 273.114 5.02436 5.0231 -0.141773 -0.264316 1.42704e+06 
8 -0.04925 8.83411e-05 1846.92 273.115 5.02433 5.02304 -0.138073 -0.260113 1.42708e+06 
9 -0.04915 8.83409e-05 1846.92 273.113 5.02429 5.02303 -0.154102 -0.259078 1.42713e+06 
10 -0.04905 8.83418e-05 1846.92 273.112 5.02431 5.0231 -0.16269 -0.318392 1.42719e+06 
11 -0.04895 8.83409e-05 1846.92 273.116 5.02434 5.02313 -0.168568 -0.32783 1.42722e+06 
12 -0.04885 8.83414e-05 1846.91 273.113 5.0243 5.02313 -0.172853 -0.328151 1.42726e+06 
13 -0.04875 8.83417e-05 1846.92 273.116 5.02437 5.02321 -0.19657 -0.360283 1.42732e+06 
14 -0.04865 8.83409e-05 1846.92 273.115 5.02432 5.02324 -0.200519 -0.394149 1.42736e+06 
15 -0.04855 8.83411e-05 1846.91 273.114 5.02432 5.02324 -0.225391 -0.408955 1.42742e+06 
16 -0.04845 8.83415e-05 1846.92 273.117 5.02438 5.02334 -0.227219 -0.432324 1.42747e+06 
17 -0.04835 8.83412e-05 1846.91 273.115 5.02434 5.02324 -0.2338 -0.434145 1.42742e+06 
18 -0.04825 8.83415e-05 1846.91 273.114 5.02433 5.02328 -0.220189 -0.435346 1.42748e+06 
19 -0.04815 8.83416e-05 1846.91 273.114 5.02435 5.02335 -0.226429 -0.473026 1.4275e+06 
20 -0.04805 8.83413e-05 1846.92 273.114 5.02432 5.02341 -0.244204 -0.470547 1.42756e+06 
21 -0.04795 8.83418e-05 1846.91 273.117 5.0244 5.02344 -0.224721 -0.472401 1.4276e+06 
22 -0.04785 8.83414e-05 1846.91 273.117 5.02438 5.02349 -0.236165 -0.485518 1.42764e+06 
23 -0.04775 8.83416e-05 1846.91 273.114 5.02433 5.02349 -0.265807 -0.504368 1.42764e+06 
24 -0.04765 8.83415e-05 1846.91 273.116 5.02438 5.02355 -0.259125 -0.522504 1.42775e+06 
25 -0.04755 8.83412e-05 1846.91 273.117 5.02438 5.02351 -0.290593 -0.544694 1.42776e+06 
34 -0.04665 8.83419e-05 1846.91 273.119 5.02445 5.02376 -0.390507 -0.622409 1.42814e+06 
33 -0.04675 8.83414e-05 1846.91 273.12 5.02444 5.02368 -0.385729 -0.664967 1.42813e+06 
35 -0.04655 8.83414e-05 1846.91 273.117 5.02439 5.02367 -0.404883 -0.656537 1.42816e+06 
36 -0.04645 8.83409e-05 1846.91 273.118 5.02438 5.02363 -0.408373 -0.64568 1.42816e+06 
37 -0.04635 8.83415e-05 1846.91 273.12 5.02444 5.02376 -0.421881 -0.667379 1.42823e+06 
38 -0.04625 8.83414e-05 1846.91 273.12 5.02443 5.0237 -0.38595 -0.62154 1.42823e+06 
39 -0.04615 8.83415e-05 1846.91 273.118 5.0244 5.02368 -0.388062 -0.6197 1.42821e+06 
40 -0.04605 8.83417e-05 1846.91 273.119 5.02444 5.02378 -0.378438 -0.602457 1.42826e+06 
41 -0.04595 8.83421e-05 1846.91 273.119 5.02446 5.02382 -0.371457 -0.610236 1.42827e+06 
42 -0.04585 8.83414e-05 1846.91 273.118 5.0244 5.02381 -0.386298 -0.610151 1.42832e+06 
43 -0.04575 8.83409e-05 1846.91 273.118 5.02438 5.02373 -0.367042 -0.596178 1.42828e+06 
44 -0.04565 8.83418e-05 1846.91 273.12 5.02446 5.02388 -0.359364 -0.573106 1.42837e+06 
45 -0.04555 8.83418e-05 1846.91 273.116 5.02439 5.02377 -0.355077 -0.599789 1.42833e+06 
46 -0.04545 8.83411e-05 1846.91 273.12 5.02441 5.02377 -0.379598 -0.607978 1.42842e+06 
47 -0.04535 8.83417e-05 1846.91 273.119 5.02444 5.02383 -0.387808 -0.641634 1.42842e+06 
48 -0.04525 8.83413e-05 1846.91 273.118 5.0244 5.02372 -0.367831 -0.599537 1.42838e+06 
49 -0.04515 8.83418e-05 1846.91 273.122 5.0245 5.0238 -0.367562 -0.631745 1.42844e+06 
50 -0.04505 8.83415e-05 1846.91 273.116 5.02438 5.02376 -0.365237 -0.633521 1.42842e+06 
26 -0.04745 8.83416e-05 1846.91 273.115 5.02436 5.02358 -0.285129 -0.578676 1.42778e+06 
27 -0.04735 8.83419e-05 1846.91 273.118 5.02443 5.02361 -0.322263 -0.599085 1.42783e+06 
28 -0.04725 8.83407e-05 1846.91 273.116 5.02433 5.02363 -0.311735 -0.594264 1.42785e+06 
29 -0.04715 8.83414e-05 1846.91 273.117 5.02438 5.02369 -0.332068 -0.622127 1.42791e+06 
30 -0.04705 8.83414e-05 1846.91 273.118 5.02439 5.02363 -0.329205 -0.586301 1.4279e+06 
31 -0.04695 8.8342e-05 1846.91 273.119 5.02445 5.02379 -0.348511 -0.621216 1.42799e+06 
32 -0.04685 8.83412e-05 1846.91 273.117 5.02438 5.02364 -0.365169 -0.650471 1.42803e+06 
67 -0.04335 8.83414e-05 1846.91 273.122 5.02448 5.02399 -0.413085 -0.644725 1.42892e+06 
65 -0.04355 8.83413e-05 1846.91 273.122 5.02447 5.02397 -0.410373 -0.647922 1.42884e+06 
66 -0.04345 8.83418e-05 1846.91 273.121 5.02449 5.0239 -0.435497 -0.647856 1.42881e+06 
68 -0.04325 8.83416e-05 1846.91 273.12 5.02445 5.02392 -0.406405 -0.634814 1.42886e+06 
69 -0.04315 8.83418e-05 1846.91 273.122 5.0245 5.02394 -0.377989 -0.5919 1.42885e+06 
70 -0.04305 8.83412e-05 1846.91 273.119 5.02442 5.02383 -0.409793 -0.656759 1.42886e+06 
71 -0.04295 8.83413e-05 1846.91 273.123 5.02448 5.02385 -0.399992 -0.636509 1.42886e+06 
72 -0.04285 8.83419e-05 1846.91 273.12 5.02447 5.02388 -0.416629 -0.648471 1.42896e+06 
73 -0.04275 8.83416e-05 1846.91 273.122 5.02448 5.02389 -0.41642 -0.63959 1.42901e+06 
74 -0.04265 8.83416e-05 1846.91 273.122 5.02449 5.02393 -0.426426 -0.669769 1.42898e+06 
75 -0.04255 8.83418e-05 1846.91 273.123 5.02452 5.02402 -0.452472 -0.68745 1.42911e+06 
51 -0.04495 8.83414e-05 1846.91 273.12 5.02444 5.0238 -0.382174 -0.638599 1.4284e+06 
52 -0.04485 8.8341e-05 1846.91 273.118 5.02439 5.02381 -0.360614 -0.609959 1.42848e+06 
53 -0.04475 8.83412e-05 1846.91 273.121 5.02444 5.0239 -0.376052 -0.64322 1.42853e+06 
54 -0.04465 8.83425e-05 1846.91 273.119 5.02448 5.02388 -0.401413 -0.623239 1.42857e+06 
55 -0.04455 8.8341e-05 1846.91 273.118 5.02438 5.02386 -0.395763 -0.610029 1.42866e+06 
56 -0.04445 8.83419e-05 1846.91 273.122 5.0245 5.02395 -0.403168 -0.637388 1.42866e+06 
57 -0.04435 8.83423e-05 1846.91 273.12 5.02448 5.02392 -0.40835 -0.668947 1.42867e+06 
58 -0.04425 8.83413e-05 1846.91 273.122 5.02447 5.02391 -0.410804 -0.641418 1.42878e+06 
59 -0.04415 8.8341e-05 1846.91 273.122 5.02445 5.02384 -0.41515 -0.683191 1.42878e+06 
60 -0.04405 8.83425e-05 1846.91 273.12 5.0245 5.02393 -0.449783 -0.716958 1.42882e+06 
61 -0.04395 8.8341e-05 1846.91 273.12 5.02442 5.02384 -0.444544 -0.681857 1.42881e+06 
62 -0.04385 8.83417e-05 1846.91 273.121 5.02448 5.02383 -0.415194 -0.651812 1.42881e+06 
63 -0.04375 8.83416e-05 1846.91 273.119 5.02443 5.02387 -0.430492 -0.675969 1.42882e+06 
64 -0.04365 8.83414e-05 1846.91 273.122 5.02448 5.02393 -0.419618 -0.660752 1.42884e+06 
100 -0.04005 8.83422e-05 1846.91 273.125 5.02457 5.02421 -0.601095 -0.926802 1.43025e+06 
97 -0.04035 8.83419e-05 1846.91 273.124 5.02454 5.02418 -0.560552 -0.835787 1.42999e+06 
98 -0.04025 8.83414e-05 1846.91 273.125 5.02453 5.02419 -0.566076 -0.873921 1.43011e+06 
99 -0.04015 8.83411e-05 1846.91 273.125 5.02451 5.02418 -0.5945 -0.896407 1.43019e+06 
76 -0.04245 8.83412e-05 1846.91 273.121 5.02444 5.02392 -0.454131 -0.676629 1.42917e+06 
77 -0.04235 8.83415e-05 1846.91 273.125 5.02454 5.02393 -0.438966 -0.68313 1.42909e+06 
78 -0.04225 8.83419e-05 1846.91 273.121 5.02449 5.024 -0.437198 -0.679813 1.42918e+06 
79 -0.04215 8.83418e-05 1846.91 273.121 5.02449 5.02399 -0.415417 -0.689977 1.4292e+06 
80 -0.04205 8.83404e-05 1846.91 273.122 5.02441 5.02399 -0.427468 -0.703212 1.42921e+06 
81 -0.04195 8.83429e-05 1846.91 273.122 5.02455 5.02405 -0.462184 -0.730543 1.4293e+06 
82 -0.04185 8.8341e-05 1846.91 273.123 5.02447 5.02406 -0.464282 -0.734757 1.42947e+06 
83 -0.04175 8.83418e-05 1846.91 273.125 5.02456 5.02409 -0.468682 -0.734721 1.4294e+06 
84 -0.04165 8.83411e-05 1846.91 273.123 5.02447 5.02402 -0.487698 -0.744479 1.42941e+06 
85 -0.04155 8.83415e-05 1846.91 273.124 5.02452 5.02404 -0.480901 -0.776546 1.42951e+06 
86 -0.04145 8.83418e-05 1846.91 273.124 5.02453 5.02406 -0.490024 -0.759368 1.42952e+06 
87 -0.04135 8.83415e-05 1846.91 273.124 5.02451 5.02407 -0.491063 -0.757753 1.4296e+06 
88 -0.04125 8.83418e-05 1846.91 273.124 5.02453 5.02416 -0.512672 -0.804928 1.42966e+06 
89 -0.04115 8.83409e-05 1846.91 273.124 5.02449 5.02408 -0.525376 -0.789093 1.42975e+06 
90 -0.04105 8.83422e-05 1846.91 273.125 5.02457 5.0241 -0.545826 -0.798426 1.42986e+06 
91 -0.04095 8.83416e-05 1846.91 273.125 5.02454 5.02409 -0.512466 -0.749062 1.42975e+06 
92 -0.04085 8.83419e-05 1846.91 273.124 5.02454 5.02405 -0.492657 -0.74285 1.42969e+06 
93 -0.04075 8.83414e-05 1846.91 273.123 5.0245 5.02411 -0.511092 -0.786032 1.42987e+06 
94 -0.04065 8.83421e-05 1846.91 273.124 5.02454 5.02417 -0.534023 -0.813966 1.42986e+06 
95 -0.04055 8.8342e-05 1846.91 273.124 5.02455 5.02418 -0.569912 -0.833724 1.43001e+06 
96 -0.04045 8.83418e-05 1846.91 273.127 5.02459 5.0242 -0.544596 -0.823452 1.43007e+06 
101 -0.03995 8.8342e-05 1846.91 273.125 5.02457 5.02428 -0.621616 -0.921323 1.43041e+06 
102 -0.03985 8.83419e-05 1846.91 273.125 5.02455 5.02427 -0.611306 -0.935397 1.43038e+06 
103 -0.03975 8.83414e-05 1846.91 273.127 5.02456 5.0243 -0.655395 -0.956132 1.43059e+06 
104 -0.03965 8.83411e-05 1846.91 273.127 5.02455 5.02426 -0.691353 -0.992098 1.43074e+06 
105 -0.03955 8.83419e-05 1846.91 273.122 5.0245 5.02422 -0.643862 -0.961616 1.4306e+06 
106 -0.03945 8.83415e-05 1846.91 273.127 5.02457 5.02436 -0.640652 -0.986556 1.43065e+06 
107 -0.03935 8.83417e-05 1846.91 273.126 5.02457 5.02439 -0.690699 -1.01577 1.43086e+06 
108 -0.03925 8.83416e-05 1846.91 273.128 5.02459 5.02442 -0.724919 -1.06673 1.43102e+06 
109 -0.03915 8.83419e-05 1846.91 273.127 5.0246 5.02447 -0.731642 -1.0573 1.43104e+06 
110 -0.03905 8.83421e-05 1846.91 273.126 5.02458 5.02448 -0.720645 -1.03102 1.43111e+06 
111 -0.03895 8.83417e-05 1846.91 273.128 5.02461 5.02453 -0.719732 -1.0546 1.43118e+06 
112 -0.03885 8.83412e-05 1846.9 273.13 5.02461 5.02458 -0.857347 -1.14489 1.43169e+06 
113 -0.03875 8.8342e-05 1846.91 273.128 5.02462 5.02457 -0.774607 -1.13184 1.4315e+06 
114 -0.03865 8.83418e-05 1846.91 273.127 5.0246 5.0246 -0.852135 -1.2111 1.43166e+06 
115 -0.03855 8.83415e-05 1846.91 273.13 5.02463 5.02463 -0.879602 -1.23382 1.43196e+06 
116 -0.03845 8.83417e-05 1846.9 273.129 5.02461 5.02457 -0.864395 -1.23299 1.43193e+06 
117 -0.03835 8.83422e-05 1846.91 273.13 5.02466 5.02462 -0.871779 -1.22216 1.43201e+06 
118 -0.03825 8.83418e-05 1846.9 273.134 5.02471 5.0247 -0.9679 -1.32455 1.43237e+06 
119 -0.03815 8.83418e-05 1846.91 273.131 5.02466 5.02467 -0.948191 -1.35631 1.43226e+06 
120 -0.03805 8.83412e-05 1846.91 273.13 5.02462 5.02462 -0.904588 -1.30151 1.4323e+06 
121 -0.03795 8.83417e-05 1846.91 273.132 5.02467 5.02463 -0.999686 -1.40088 1.43261e+06 
122 -0.03785 8.83418e-05 1846.9 273.13 5.02465 5.02468 -0.929782 -1.34359 1.43243e+06 
123 -0.03775 8.83417e-05 1846.91 273.13 5.02464 5.02458 -0.920672 -1.30473 1.43253e+06 
124 -0.03765 8.83417e-05 1846.91 273.133 5.02468 5.02471 -0.94792 -1.28601 1.43254e+06 
125 -0.03755 8.83414e-05 1846.91 273.13 5.02462 5.02467 -0.975034 -1.36624 1.43276e+06 
134 -0.03665 8.83417e-05 1846.9 273.136 5.02476 5.02493 -1.23504 -1.72517 1.43439e+06 
129 -0.03715 8.83422e-05 1846.91 273.133 5.02472 5.02483 -1.05551 -1.51382 1.43338e+06 
130 -0.03705 8.83416e-05 1846.9 273.134 5.0247 5.02484 -1.08218 -1.55598 1.43362e+06 
131 -0.03695 8.83418e-05 1846.9 273.135 5.02474 5.02485 -1.10773 -1.57768 1.43373e+06 
132 -0.03685 8.83423e-05 1846.91 273.135 5.02477 5.02485 -1.14137 -1.61612 1.43394e+06 
133 -0.03675 8.83415e-05 1846.9 273.136 5.02474 5.0249 -1.18098 -1.66857 1.43413e+06 
135 -0.03655 8.83414e-05 1846.9 273.139 5.02479 5.02492 -1.25217 -1.74632 1.43455e+06 
136 -0.03645 8.83424e-05 1846.9 273.14 5.02486 5.02512 -1.39237 -1.8999 1.43522e+06 
137 -0.03635 8.83416e-05 1846.9 273.14 5.02481 5.02503 -1.33349 -1.88493 1.43513e+06 
138 -0.03625 8.83411e-05 1846.9 273.141 5.0248 5.02505 -1.38055 -1.97373 1.4354e+06 
139 -0.03615 8.83425e-05 1846.9 273.141 5.02489 5.02518 -1.39253 -2.03541 1.43554e+06 
140 -0.03605 8.83425e-05 1846.9 273.143 5.02493 5.02518 -1.43707 -2.06533 1.43577e+06 
141 -0.03595 8.83417e-05 1846.9 273.144 5.0249 5.02517 -1.5643 -2.20209 1.43626e+06 
142 -0.03585 8.83427e-05 1846.9 273.145 5.02497 5.02532 -1.56679 -2.25754 1.43647e+06 
143 -0.03575 8.8342e-05 1846.9 273.144 5.02492 5.02523 -1.53999 -2.27473 1.43642e+06 
144 -0.03565 8.83416e-05 1846.9 273.145 5.02491 5.02533 -1.51837 -2.25481 1.43646e+06 
145 -0.03555 8.83425e-05 1846.9 273.146 5.02498 5.02537 -1.61827 -2.43122 1.43685e+06 
146 -0.03545 8.83421e-05 1846.9 273.148 5.02499 5.02545 -1.66476 -2.47035 1.43719e+06 
147 -0.03535 8.8342e-05 1846.9 273.149 5.025 5.02539 -1.75281 -2.55135 1.43754e+06 
148 -0.03525 8.83424e-05 1846.9 273.148 5.02502 5.02546 -1.74277 -2.60413 1.43764e+06 
149 -0.03515 8.8342e-05 1846.9 273.149 5.02501 5.02545 -1.75546 -2.60927 1.43786e+06 
150 -0.03505 8.83417e-05 1846.9 273.149 5.02499 5.02546 -1.87424 -2.76445 1.4383e+06 
126 -0.03745 8.83417e-05 1846.91 273.131 5.02466 5.02469 -1.0065 -1.43539 1.43302e+06 
127 -0.03735 8.83417e-05 1846.91 273.134 5.02471 5.02474 -1.0526 -1.47223 1.43318e+06 
128 -0.03725 8.83409e-05 1846.9 273.133 5.02466 5.02475 -1.03764 -1.47155 1.43329e+06 
167 -0.03335 8.83418e-05 1846.9 273.169 5.02536 5.02584 -2.70318 -4.01151 1.44353e+06 
161 -0.03395 8.83414e-05 1846.9 273.165 5.02526 5.02596 -2.53308 -3.74888 1.44218e+06 
162 -0.03385 8.83426e-05 1846.9 273.166 5.02535 5.02592 -2.61468 -3.84369 1.4426e+06 
163 -0.03375 8.83425e-05 1846.9 273.169 5.0254 5.02605 -2.67592 -3.96476 1.44308e+06 
164 -0.03365 8.83411e-05 1846.9 273.166 5.02526 5.02583 -2.644 -3.90627 1.44287e+06 
165 -0.03355 8.83428e-05 1846.9 273.169 5.02542 5.02597 -2.74626 -4.06471 1.44349e+06 
166 -0.03345 8.83421e-05 1846.9 273.169 5.02537 5.02585 -2.76505 -4.08064 1.44363e+06 
168 -0.03325 8.83424e-05 1846.9 273.17 5.02542 5.026 -2.83257 -4.213 1.44426e+06 
169 -0.03315 8.83424e-05 1846.9 273.173 5.02547 5.02609 -2.92194 -4.3315 1.44474e+06 
170 -0.03305 8.83426e-05 1846.9 273.172 5.02547 5.026 -2.88403 -4.27735 1.44457e+06 
171 -0.03295 8.83423e-05 1846.89 273.175 5.02551 5.02621 -3.07203 -4.49484 1.44562e+06 
172 -0.03285 8.83422e-05 1846.9 273.177 5.02553 5.02618 -3.19523 -4.6638 1.44623e+06 
173 -0.03275 8.83426e-05 1846.9 273.18 5.02561 5.02631 -3.19398 -4.70407 1.44634e+06 
174 -0.03265 8.83422e-05 1846.89 273.181 5.02561 5.02634 -3.35895 -4.95035 1.44715e+06 
175 -0.03255 8.83424e-05 1846.89 273.182 5.02563 5.02628 -3.45833 -5.01494 1.44756e+06 
151 -0.03495 8.83428e-05 1846.9 273.152 5.0251 5.02558 -1.94051 -2.85126 1.43878e+06 
152 -0.03485 8.83417e-05 1846.9 273.154 5.02507 5.02554 -1.89009 -2.78533 1.4387e+06 
153 -0.03475 8.83414e-05 1846.9 273.151 5.025 5.02549 -1.92482 -2.8153 1.4389e+06 
154 -0.03465 8.83422e-05 1846.9 273.156 5.02514 5.02557 -2.05763 -2.98853 1.43967e+06 
155 -0.03455 8.8342e-05 1846.9 273.154 5.02509 5.02564 -2.00919 -2.98353 1.43955e+06 
156 -0.03445 8.83423e-05 1846.9 273.156 5.02516 5.02574 -2.16246 -3.15473 1.44019e+06 
157 -0.03435 8.83422e-05 1846.9 273.159 5.02519 5.02571 -2.13899 -3.13602 1.44009e+06 
158 -0.03425 8.83415e-05 1846.9 273.155 5.0251 5.02566 -2.17884 -3.23638 1.44042e+06 
159 -0.03415 8.83412e-05 1846.9 273.161 5.02517 5.02567 -2.31307 -3.39336 1.44104e+06 
160 -0.03405 8.83431e-05 1846.9 273.16 5.02527 5.02586 -2.35572 -3.48315 1.44133e+06 
200 -0.03005 8.83444e-05 1846.88 273.262 5.02723 5.0292 -7.53821 -11.0295 1.47101e+06 
193 -0.03075 8.83432e-05 1846.88 273.234 5.02664 5.0283 -5.92686 -8.71443 1.46202e+06 
194 -0.03065 8.83428e-05 1846.88 273.235 5.02663 5.02834 -6.09998 -8.97913 1.46289e+06 
195 -0.03055 8.83431e-05 1846.88 273.242 5.02678 5.02859 -6.37234 -9.32505 1.46447e+06 
196 -0.03045 8.83437e-05 1846.88 273.245 5.02686 5.02858 -6.50487 -9.52851 1.46523e+06 
197 -0.03035 8.83428e-05 1846.88 273.25 5.02691 5.02881 -6.85382 -9.95816 1.46697e+06 
198 -0.03025 8.83435e-05 1846.88 273.253 5.02701 5.02887 -6.99278 -10.1873 1.46803e+06 
199 -0.03015 8.83428e-05 1846.88 273.261 5.02711 5.02904 -7.15308 -10.428 1.46876e+06 
176 -0.03245 8.8342e-05 1846.89 273.187 5.0257 5.02655 -3.6615 -5.37042 1.44875e+06 
177 -0.03235 8.83427e-05 1846.89 273.191 5.02583 5.02676 -3.83324 -5.59495 1.44957e+06 
178 -0.03225 8.83431e-05 1846.9 273.189 5.02581 5.02681 -3.81702 -5.5797 1.44955e+06 
179 -0.03215 8.83419e-05 1846.89 273.194 5.02583 5.02685 -4.0473 -5.88617 1.4508e+06 
180 -0.03205 8.83425e-05 1846.89 273.197 5.02591 5.02697 -4.15385 -6.07197 1.45145e+06 
181 -0.03195 8.83424e-05 1846.89 273.199 5.02595 5.02702 -4.20571 -6.12133 1.45178e+06 
182 -0.03185 8.8343e-05 1846.89 273.204 5.02608 5.02717 -4.49381 -6.48655 1.45321e+06 
183 -0.03175 8.83429e-05 1846.89 273.203 5.02605 5.02719 -4.47707 -6.51134 1.45344e+06 
184 -0.03165 8.83424e-05 1846.89 273.207 5.0261 5.02734 -4.68335 -6.79621 1.45456e+06 
185 -0.03155 8.83429e-05 1846.89 273.21 5.02619 5.02749 -4.77415 -6.9739 1.455e+06 
186 -0.03145 8.83427e-05 1846.89 273.21 5.02617 5.02753 -4.81901 -7.07133 1.45538e+06 
187 -0.03135 8.8343e-05 1846.89 273.214 5.02625 5.02761 -5.00965 -7.34033 1.45647e+06 
188 -0.03125 8.83429e-05 1846.89 273.22 5.02636 5.02772 -5.24109 -7.62027 1.45775e+06 
189 -0.03115 8.83428e-05 1846.89 273.22 5.02636 5.02799 -5.35836 -7.86031 1.45838e+06 
190 -0.03105 8.83434e-05 1846.88 273.223 5.02644 5.028 -5.39608 -7.98268 1.45901e+06 
191 -0.03095 8.83428e-05 1846.88 273.227 5.02649 5.0281 -5.61271 -8.28476 1.46018e+06 
192 -0.03085 8.83432e-05 1846.88 273.228 5.02653 5.02822 -5.77181 -8.47111 1.46088e+06 
201 -0.02995 8.83427e-05 1846.87 273.268 5.02723 5.02927 -7.68457 -11.2498 1.47167e+06 
225 -0.02755 8.83449e-05 1846.84 273.434 5.03041 5.0349 -16.0357 -23.6154 1.51801e+06 
202 -0.02985 8.8344e-05 1846.87 273.276 5.02745 5.02962 -8.03702 -11.8175 1.47356e+06 
203 -0.02975 8.83441e-05 1846.87 273.281 5.02756 5.02986 -8.29676 -12.1994 1.4751e+06 
204 -0.02965 8.83429e-05 1846.87 273.281 5.02748 5.02975 -8.41364 -12.4144 1.47583e+06 
205 -0.02955 8.83442e-05 1846.87 273.285 5.02763 5.02989 -8.59565 -12.6157 1.477e+06 
206 -0.02945 8.83434e-05 1846.87 273.291 5.02769 5.03009 -8.86706 -13.0215 1.47876e+06 
207 -0.02935 8.83443e-05 1846.87 273.298 5.02787 5.03033 -9.16117 -13.4848 1.48009e+06 
208 -0.02925 8.83435e-05 1846.87 273.303 5.02793 5.03054 -9.47284 -13.9767 1.48194e+06 
209 -0.02915 8.83437e-05 1846.87 273.307 5.02802 5.03061 -9.66533 -14.3082 1.48311e+06 
210 -0.02905 8.83435e-05 1846.87 273.316 5.02817 5.03086 -10.1396 -14.9788 1.48548e+06 
211 -0.02895 8.83444e-05 1846.87 273.321 5.02831 5.03123 -10.4623 -15.4891 1.48744e+06 
212 -0.02885 8.83441e-05 1846.86 273.329 5.02845 5.03134 -10.7132 -15.7643 1.48879e+06 
213 -0.02875 8.83443e-05 1846.86 273.334 5.02855 5.03154 -11.0719 -16.3305 1.49084e+06 
214 -0.02865 8.83443e-05 1846.86 273.341 5.02867 5.03172 -11.3984 -16.7685 1.49255e+06 
215 -0.02855 8.83438e-05 1846.86 273.348 5.02878 5.03194 -11.6827 -17.2388 1.49413e+06 
216 -0.02845 8.83448e-05 1846.86 273.348 5.02882 5.03198 -11.8116 -17.5062 1.49514e+06 
217 -0.02835 8.83436e-05 1846.86 273.36 5.02898 5.03225 -12.2391 -18.1192 1.49745e+06 
218 -0.02825 8.83441e-05 1846.85 273.368 5.02916 5.03255 -12.7658 -18.91 1.50032e+06 
219 -0.02815 8.83447e-05 1846.86 273.377 5.02934 5.03286 -13.1864 -19.4563 1.50238e+06 
220 -0.02805 8.83443e-05 1846.85 273.382 5.02942 5.03296 -13.4228 -19.9316 1.50397e+06 
221 -0.02795 8.83438e-05 1846.85 273.389 5.02953 5.03333 -13.8837 -20.5709 1.50656e+06 
222 -0.02785 8.83454e-05 1846.85 273.404 5.02989 5.03392 -14.5366 -21.5352 1.50975e+06 
223 -0.02775 8.8345e-05 1846.84 273.41 5.02997 5.03417 -14.7653 -21.9478 1.51132e+06 
224 -0.02765 8.8345e-05 1846.84 273.423 5.03021 5.03451 -15.4143 -22.7613 1.5148e+06 
234 -0.02665 8.83455e-05 1846.82 273.538 5.03237 5.03818 -21.2909 -31.348 1.54693e+06 
226 -0.02745 8.83454e-05 1846.84 273.444 5.03062 5.0352 -16.4841 -24.2603 1.52042e+06 
227 -0.02735 8.83456e-05 1846.84 273.455 5.03083 5.03557 -17.1694 -25.3037 1.52405e+06 
228 -0.02725 8.83452e-05 1846.84 273.466 5.03102 5.03588 -17.7115 -26.0572 1.5272e+06 
229 -0.02715 8.83461e-05 1846.83 273.476 5.03125 5.03622 -18.0631 -26.6762 1.52933e+06 
230 -0.02705 8.83454e-05 1846.83 273.489 5.03146 5.03669 -18.7969 -27.7285 1.53312e+06 
231 -0.02695 8.83459e-05 1846.83 273.496 5.03162 5.03685 -19.2329 -28.4253 1.5358e+06 
232 -0.02685 8.83454e-05 1846.83 273.508 5.0318 5.03717 -19.6696 -29.1226 1.53859e+06 
233 -0.02675 8.83466e-05 1846.83 273.523 5.03215 5.03772 -20.5723 -30.349 1.54309e+06 
235 -0.02655 8.83462e-05 1846.82 273.554 5.03269 5.03878 -22.1212 -32.6351 1.55145e+06 
236 -0.02645 8.83467e-05 1846.82 273.568 5.03298 5.0393 -22.7478 -33.5536 1.55516e+06 
237 -0.02635 8.83467e-05 1846.81 273.587 5.03333 5.03974 -23.6983 -34.8475 1.56003e+06 
238 -0.02625 8.83459e-05 1846.81 273.596 5.03344 5.04001 -24.2343 -35.6917 1.56345e+06 
239 -0.02615 8.83479e-05 1846.81 273.62 5.03401 5.04091 -25.4754 -37.4713 1.56974e+06 
240 -0.02605 8.8346e-05 1846.8 273.636 5.03419 5.04124 -26.1453 -38.4065 1.57354e+06 
241 -0.02595 8.83476e-05 1846.8 273.649 5.03452 5.04192 -26.8952 -39.6935 1.57791e+06 
242 -0.02585 8.83472e-05 1846.79 273.669 5.03486 5.04242 -27.8779 -40.9873 1.58296e+06 
243 -0.02575 8.83479e-05 1846.79 273.685 5.03521 5.04305 -28.631 -42.1819 1.5873e+06 
244 -0.02565 8.83474e-05 1846.79 273.705 5.03554 5.04376 -29.7091 -43.9199 1.59332e+06 
245 -0.02555 8.83479e-05 1846.78 273.722 5.03588 5.04433 -30.6011 -45.1756 1.59808e+06 
246 -0.02545 8.83476e-05 1846.78 273.746 5.0363 5.04499 -31.6307 -46.6812 1.60386e+06 
247 -0.02535 8.83487e-05 1846.78 273.763 5.03669 5.04562 -32.7357 -48.2457 1.61012e+06 
248 -0.02525 8.8348e-05 1846.77 273.788 5.0371 5.04639 -33.8557 -49.8039 1.61617e+06 
249 -0.02515 8.83486e-05 1846.77 273.808 5.03751 5.04702 -34.8533 -51.3549 1.62178e+06 
250 -0.02505 8.83489e-05 1846.76 273.825 5.03783 5.04763 -35.7991 -52.8356 1.62706e+06 
267 -0.02335 8.83536e-05 1846.65 274.361 5.04796 5.06497 -62.7602 -92.8756 1.77518e+06 
257 -0.02435 8.83509e-05 1846.73 274.014 5.04143 5.05382 -45.1761 -66.8026 1.67831e+06 
258 -0.02425 8.83502e-05 1846.72 274.038 5.04182 5.05444 -46.546 -68.7898 1.68638e+06 
259 -0.02415 8.83507e-05 1846.72 274.067 5.0424 5.05558 -48.0032 -71.2427 1.69464e+06 
260 -0.02405 8.83505e-05 1846.71 274.103 5.04303 5.05658 -49.7681 -73.7072 1.70404e+06 
261 -0.02395 8.83519e-05 1846.7 274.13 5.04362 5.05768 -51.1977 -75.8614 1.71203e+06 
262 -0.02385 8.83516e-05 1846.69 274.177 5.04447 5.05907 -53.4432 -79.0982 1.7238e+06 
263 -0.02375 8.83519e-05 1846.69 274.203 5.04497 5.05984 -54.7776 -81.1309 1.73161e+06 
264 -0.02365 8.83527e-05 1846.68 274.241 5.04571 5.06102 -56.6788 -83.9275 1.74234e+06 
265 -0.02355 8.8352e-05 1846.68 274.27 5.0462 5.06202 -58.162 -86.2043 1.75085e+06 
266 -0.02345 8.83534e-05 1846.67 274.315 5.04711 5.06348 -60.405 -89.3967 1.76258e+06 
268 -0.02325 8.83537e-05 1846.65 274.402 5.04872 5.06632 -64.7301 -95.7582 1.78608e+06 
269 -0.02315 8.83538e-05 1846.64 274.436 5.04935 5.06745 -66.5646 -98.6914 1.7964e+06 
270 -0.02305 8.83549e-05 1846.63 274.487 5.05036 5.06916 -68.8742 -102.038 1.80902e+06 
271 -0.02295 8.83553e-05 1846.62 274.536 5.05129 5.07089 -71.4463 -106.003 1.82287e+06 
272 -0.02285 8.83551e-05 1846.61 274.586 5.0522 5.07259 -74.0428 -109.743 1.8372e+06 
273 -0.02275 8.83567e-05 1846.6 274.634 5.05317 5.07413 -76.5295 -113.413 1.85044e+06 
274 -0.02265 8.83568e-05 1846.59 274.685 5.05411 5.0758 -78.8979 -116.992 1.8638e+06 
275 -0.02255 8.83562e-05 1846.58 274.729 5.05488 5.07701 -81.1873 -120.226 1.8768e+06 
251 -0.02495 8.83487e-05 1846.76 273.85 5.03829 5.04843 -37.1648 -54.8444 1.63465e+06 
252 -0.02485 8.83489e-05 1846.75 273.871 5.03868 5.04917 -38.1428 -56.5156 1.64038e+06 
253 -0.02475 8.83494e-05 1846.75 273.901 5.03926 5.05013 -39.5023 -58.4822 1.64775e+06 
254 -0.02465 8.83495e-05 1846.74 273.934 5.03988 5.05127 -41.3252 -61.1279 1.65682e+06 
255 -0.02455 8.83497e-05 1846.74 273.957 5.04031 5.05195 -42.4352 -62.7932 1.66341e+06 
256 -0.02445 8.835e-05 1846.73 273.985 5.04085 5.05293 -43.8553 -65.0701 1.67151e+06 
300 -0.02005 8.83772e-05 1846.16 276.797 5.09414 5.14556 -185.095 -274.635 2.44324e+06 
289 -0.02115 8.83666e-05 1846.39 275.682 5.07302 5.10855 -129.171 -191.408 2.13853e+06 
290 -0.02105 8.83664e-05 1846.38 275.754 5.07433 5.11086 -132.666 -196.784 2.15808e+06 
291 -0.02095 8.83675e-05 1846.36 275.831 5.07581 5.11336 -136.569 -202.675 2.18018e+06 
292 -0.02085 8.83686e-05 1846.34 275.932 5.07774 5.11676 -141.655 -210.078 2.20749e+06 
293 -0.02075 8.83695e-05 1846.32 276.028 5.07954 5.11984 -146.554 -217.204 2.23426e+06 
294 -0.02065 8.837e-05 1846.3 276.124 5.08135 5.12324 -151.238 -224.42 2.25907e+06 
295 -0.02055 8.83716e-05 1846.28 276.224 5.08328 5.1266 -156.335 -232.341 2.28807e+06 
296 -0.02045 8.83729e-05 1846.26 276.337 5.08543 5.13008 -161.902 -239.888 2.31676e+06 
297 -0.02035 8.8374e-05 1846.24 276.44 5.08739 5.13374 -167.31 -248.328 2.34709e+06 
298 -0.02025 8.83737e-05 1846.21 276.559 5.08956 5.13741 -173.078 -256.748 2.37827e+06 
299 -0.02015 8.83761e-05 1846.19 276.675 5.09184 5.14131 -178.893 -265.258 2.40934e+06 
276 -0.02245 8.8358e-05 1846.57 274.784 5.05599 5.07897 -83.994 -124.645 1.8927e+06 
277 -0.02235 8.8358e-05 1846.56 274.833 5.0569 5.08051 -86.3427 -128.032 1.90492e+06 
278 -0.02225 8.83585e-05 1846.54 274.906 5.05828 5.08298 -90.1113 -133.608 1.92531e+06 
279 -0.02215 8.83588e-05 1846.54 274.956 5.05921 5.08457 -92.6764 -137.581 1.94002e+06 
280 -0.02205 8.83601e-05 1846.53 275.007 5.06023 5.0864 -95.2011 -141.65 1.95414e+06 
281 -0.02195 8.83599e-05 1846.51 275.084 5.06163 5.08891 -99.1002 -147.153 1.9741e+06 
282 -0.02185 8.83612e-05 1846.5 275.147 5.06286 5.09098 -102.221 -151.948 1.99244e+06 
283 -0.02175 8.83624e-05 1846.49 275.206 5.06402 5.09311 -105.15 -156.459 2.00834e+06 
284 -0.02165 8.8362e-05 1846.47 275.286 5.06547 5.09558 -109.21 -162.225 2.02995e+06 
285 -0.02155 8.83627e-05 1846.45 275.365 5.06696 5.09819 -113.112 -167.704 2.05029e+06 
286 -0.02145 8.83638e-05 1846.44 275.439 5.06839 5.10053 -116.898 -173.206 2.07143e+06 
287 -0.02135 8.83651e-05 1846.42 275.529 5.07011 5.10353 -121.332 -179.519 2.09469e+06 
288 -0.02125 8.83654e-05 1846.4 275.615 5.07171 5.10628 -125.671 -185.852 2.11822e+06 
301 -0.01995 8.83775e-05 1846.14 276.911 5.09626 5.14936 -190.896 -283.697 2.47593e+06 
321 -0.01795 8.84145e-05 1845.38 280.671 5.16762 5.27459 -379.665 -563.876 3.49613e+06 
322 -0.01785 8.84168e-05 1845.33 280.923 5.1724 5.28283 -392.128 -582.346 3.56388e+06 
323 -0.01775 8.84199e-05 1845.27 281.228 5.17818 5.29294 -407.497 -604.528 3.64457e+06 
324 -0.01765 8.84228e-05 1845.21 281.489 5.18316 5.30176 -420.412 -624.441 3.71551e+06 
325 -0.01755 8.84252e-05 1845.15 281.794 5.18892 5.31195 -435.927 -647.381 3.79903e+06 
302 -0.01985 8.83797e-05 1846.11 277.059 5.09911 5.1542 -198.201 -293.995 2.51459e+06 
303 -0.01975 8.8381e-05 1846.09 277.198 5.10175 5.15879 -205.304 -304.412 2.55266e+06 
304 -0.01965 8.83819e-05 1846.05 277.351 5.10461 5.16392 -212.882 -315.655 2.59239e+06 
305 -0.01955 8.83843e-05 1846.03 277.491 5.10733 5.16887 -219.907 -326.55 2.63156e+06 
306 -0.01945 8.83848e-05 1845.99 277.632 5.10994 5.17336 -227.095 -336.954 2.67106e+06 
307 -0.01935 8.83864e-05 1845.97 277.784 5.11284 5.17816 -234.708 -348.035 2.71231e+06 
308 -0.01925 8.83877e-05 1845.93 277.933 5.11566 5.18305 -242.159 -358.986 2.75298e+06 
309 -0.01915 8.83902e-05 1845.9 278.122 5.11929 5.18944 -251.631 -373.062 2.8033e+06 
310 -0.01905 8.83915e-05 1845.86 278.302 5.12268 5.1957 -260.764 -386.861 2.85213e+06 
311 -0.01895 8.83932e-05 1845.82 278.485 5.12613 5.20155 -269.899 -400.216 2.90211e+06 
312 -0.01885 8.83952e-05 1845.79 278.67 5.12966 5.20778 -279.052 -413.985 2.95093e+06 
313 -0.01875 8.83968e-05 1845.74 278.872 5.13347 5.21465 -289.281 -429.289 3.0063e+06 
314 -0.01865 8.83985e-05 1845.7 279.065 5.13713 5.22115 -299.165 -444.013 3.05991e+06 
315 -0.01855 8.84014e-05 1845.66 279.274 5.14114 5.22793 -309.384 -458.929 3.11523e+06 
316 -0.01845 8.84029e-05 1845.62 279.49 5.1452 5.23525 -320.295 -475.505 3.1748e+06 
317 -0.01835 8.8405e-05 1845.57 279.709 5.14936 5.24258 -331.385 -491.864 3.23439e+06 
318 -0.01825 8.8407e-05 1845.53 279.914 5.15324 5.2493 -341.447 -507.347 3.2905e+06 
319 -0.01815 8.84102e-05 1845.48 280.153 5.15783 5.25734 -353.71 -525.346 3.35745e+06 
320 -0.01805 8.84115e-05 1845.43 280.409 5.16263 5.26571 -366.258 -543.934 3.42357e+06 
334 -0.01665 8.84547e-05 1844.51 284.912 5.2481 5.41656 -592.188 -881.376 4.64252e+06 
326 -0.01745 8.84291e-05 1845.09 282.106 5.19491 5.32251 -451.591 -670.969 3.88328e+06 
327 -0.01735 8.84308e-05 1845.02 282.435 5.20105 5.33325 -467.912 -694.584 3.96992e+06 
328 -0.01725 8.84351e-05 1844.95 282.763 5.20736 5.34435 -484.484 -719.41 4.05901e+06 
329 -0.01715 8.84376e-05 1844.89 283.057 5.21292 5.35427 -499.266 -742.272 4.14135e+06 
330 -0.01705 8.84408e-05 1844.83 283.392 5.21927 5.36497 -515.91 -766.487 4.23195e+06 
331 -0.01695 8.8444e-05 1844.75 283.742 5.22591 5.3768 -533.641 -793.016 4.32704e+06 
332 -0.01685 8.84481e-05 1844.68 284.121 5.23314 5.38953 -552.625 -821.552 4.43028e+06 
333 -0.01675 8.8452e-05 1844.6 284.489 5.24014 5.40226 -571.075 -849.803 4.53023e+06 
335 -0.01655 8.84598e-05 1844.43 285.331 5.2561 5.43064 -613.344 -912.637 4.75545e+06 
336 -0.01645 8.84643e-05 1844.34 285.757 5.26423 5.44483 -634.526 -944.454 4.87028e+06 
337 -0.01635 8.84677e-05 1844.25 286.205 5.27268 5.46026 -657.166 -978.586 4.99148e+06 
338 -0.01625 8.8473e-05 1844.15 286.699 5.28211 5.47698 -681.821 -1015.1 5.12159e+06 
339 -0.01615 8.84783e-05 1844.05 287.181 5.2913 5.49302 -705.812 -1050.58 5.24948e+06 
340 -0.01605 8.84828e-05 1843.94 287.727 5.30163 5.51142 -733.458 -1091.41 5.3964e+06 