ITEM: TIMESTEP
20000
ITEM: NUMBER OF CELLS
800
ITEM: BOX BOUNDS os pp pp
-0.05 0.03
-0.001 0.001
-0.001 0.001
ITEM: CELLS id f_1[1] f_1[2] f_1[3] f_1[4] f_1[5] f_1[6] f_1[7] f_1[8] f_1[9] 
1 -0.04995 8.83421e-05 1846.91 273.109 5.02427 5.02311 -0.151887 -0.243435 1.42668e+06 
2 -0.04985 8.83412e-05 1846.91 273.11 5.02425 5.02313 -0.150383 -0.257553 1.42672e+06 
3 -0.04975 8.83413e-05 1846.91 273.109 5.02422 5.02312 -0.139852 -0.265426 1.42677e+06 
4 -0.04965 8.83418e-05 1846.91 273.108 5.02424 5.02311 -0.178334 -0.303359 1.42679e+06 
5 -0.04955 8.83416e-05 1846.91 273.11 5.02428 5.02319 -0.163266 -0.294753 1.42687e+06 
6 -0.04945 8.83421e-05 1846.91 273.109 5.02429 5.02325 -0.202111 -0.346046 1.4269e+06 
7 -0.04935 8.83412e-05 1846.91 273.112 5.02428 5.02328 -0.206702 -0.386379 1.427e+06 
8 -0.04925 8.8341e-05 1846.91 273.109 5.02421 5.02324 -0.224638 -0.405769 1.42702e+06 
9 -0.04915 8.83426e-05 1846.91 273.11 5.02432 5.02331 -0.226203 -0.42088 1.42704e+06 
10 -0.04905 8.83411e-05 1846.91 273.112 5.02427 5.02325 -0.223937 -0.41088 1.4271e+06 
11 -0.04895 8.8342e-05 1846.91 273.111 5.0243 5.02336 -0.233824 -0.441148 1.42717e+06 
12 -0.04885 8.83416e-05 1846.91 273.111 5.02428 5.02339 -0.240703 -0.468737 1.42722e+06 
13 -0.04875 8.83416e-05 1846.91 273.109 5.02425 5.02341 -0.251289 -0.490496 1.42724e+06 
14 -0.04865 8.83418e-05 1846.91 273.111 5.0243 5.02337 -0.254072 -0.470366 1.42725e+06 
15 -0.04855 8.83412e-05 1846.91 273.11 5.02425 5.02339 -0.251073 -0.462274 1.42732e+06 
16 -0.04845 8.83424e-05 1846.91 273.112 5.02436 5.02353 -0.261328 -0.50869 1.42743e+06 
17 -0.04835 8.83417e-05 1846.91 273.11 5.02428 5.02351 -0.309662 -0.566683 1.42748e+06 
18 -0.04825 8.83412e-05 1846.91 273.113 5.02429 5.02352 -0.281968 -0.535093 1.42748e+06 
19 -0.04815 8.83418e-05 1846.91 273.111 5.02429 5.02352 -0.289664 -0.548643 1.42752e+06 
20 -0.04805 8.83419e-05 1846.91 273.111 5.0243 5.02354 -0.308766 -0.578857 1.4276e+06 
21 -0.04795 8.83411e-05 1846.9 273.112 5.02427 5.02363 -0.292696 -0.526422 1.42759e+06 
22 -0.04785 8.83421e-05 1846.91 273.114 5.02437 5.02367 -0.270216 -0.546949 1.42762e+06 
23 -0.04775 8.8342e-05 1846.91 273.109 5.02426 5.02365 -0.286802 -0.536812 1.42762e+06 
24 -0.04765 8.83413e-05 1846.91 273.113 5.02431 5.02364 -0.26004 -0.527565 1.42764e+06 
25 -0.04755 8.83422e-05 1846.91 273.11 5.0243 5.02374 -0.295021 -0.532699 1.42773e+06 
34 -0.04665 8.83421e-05 1846.91 273.111 5.02431 5.02375 -0.319333 -0.547924 1.42792e+06 
33 -0.04675 8.83414e-05 1846.9 273.113 5.0243 5.02378 -0.357916 -0.575979 1.4281e+06 
35 -0.04655 8.83418e-05 1846.91 273.114 5.02435 5.02381 -0.323123 -0.524887 1.42797e+06 
36 -0.04645 8.83411e-05 1846.91 273.113 5.02429 5.02374 -0.323994 -0.523305 1.42796e+06 
37 -0.04635 8.83416e-05 1846.91 273.113 5.02431 5.02376 -0.336819 -0.546399 1.42803e+06 
38 -0.04625 8.83417e-05 1846.91 273.113 5.02432 5.02378 -0.353534 -0.55489 1.42809e+06 
39 -0.04615 8.83415e-05 1846.9 273.114 5.02434 5.02379 -0.364447 -0.567485 1.42812e+06 
40 -0.04605 8.83419e-05 1846.91 273.113 5.02435 5.02384 -0.347001 -0.53944 1.42807e+06 
41 -0.04595 8.83418e-05 1846.91 273.115 5.02438 5.02384 -0.344648 -0.527419 1.42812e+06 
42 -0.04585 8.83414e-05 1846.91 273.114 5.02433 5.02381 -0.331652 -0.496181 1.42807e+06 
43 -0.04575 8.83423e-05 1846.91 273.114 5.02437 5.02387 -0.370796 -0.568435 1.42821e+06 
44 -0.04565 8.83423e-05 1846.91 273.116 5.0244 5.02388 -0.419147 -0.628704 1.42842e+06 
45 -0.04555 8.83409e-05 1846.9 273.116 5.02433 5.02381 -0.397454 -0.599089 1.42833e+06 
46 -0.04545 8.83421e-05 1846.91 273.114 5.02438 5.02386 -0.394621 -0.588859 1.42833e+06 
47 -0.04535 8.8342e-05 1846.91 273.115 5.02438 5.02379 -0.367372 -0.553163 1.42834e+06 
48 -0.04525 8.8342e-05 1846.91 273.114 5.02437 5.0238 -0.378371 -0.581635 1.42834e+06 
49 -0.04515 8.83416e-05 1846.91 273.116 5.02437 5.02381 -0.352887 -0.576723 1.42829e+06 
50 -0.04505 8.83413e-05 1846.91 273.113 5.0243 5.02374 -0.360409 -0.582974 1.42835e+06 
26 -0.04745 8.83416e-05 1846.9 273.112 5.02431 5.02371 -0.257466 -0.497375 1.42769e+06 
27 -0.04735 8.83413e-05 1846.9 273.114 5.02431 5.02375 -0.306462 -0.517315 1.42774e+06 
28 -0.04725 8.83422e-05 1846.91 273.113 5.02434 5.02371 -0.29838 -0.506461 1.42779e+06 
29 -0.04715 8.83411e-05 1846.91 273.112 5.02427 5.02375 -0.319511 -0.550477 1.42778e+06 
30 -0.04705 8.83417e-05 1846.9 273.114 5.02434 5.0238 -0.32763 -0.569949 1.42785e+06 
31 -0.04695 8.8342e-05 1846.91 273.112 5.02433 5.0238 -0.312573 -0.538021 1.42787e+06 
32 -0.04685 8.83417e-05 1846.91 273.113 5.02432 5.02378 -0.342496 -0.556807 1.42797e+06 
67 -0.04335 8.83413e-05 1846.9 273.115 5.02434 5.02406 -0.365737 -0.601071 1.4289e+06 
65 -0.04355 8.83412e-05 1846.9 273.114 5.02432 5.02399 -0.370044 -0.622582 1.42877e+06 
66 -0.04345 8.83425e-05 1846.91 273.111 5.02434 5.02401 -0.388122 -0.65987 1.4289e+06 
68 -0.04325 8.8342e-05 1846.91 273.114 5.02437 5.02402 -0.379152 -0.620017 1.42896e+06 
69 -0.04315 8.8342e-05 1846.9 273.111 5.02431 5.02403 -0.384409 -0.608985 1.42894e+06 
70 -0.04305 8.83417e-05 1846.91 273.114 5.02435 5.02409 -0.386313 -0.623493 1.42893e+06 
71 -0.04295 8.8342e-05 1846.9 273.114 5.02436 5.02419 -0.412035 -0.680098 1.42912e+06 
72 -0.04285 8.83414e-05 1846.9 273.116 5.02436 5.02421 -0.450624 -0.693579 1.42928e+06 
73 -0.04275 8.83421e-05 1846.91 273.114 5.02436 5.02413 -0.425951 -0.662921 1.42916e+06 
74 -0.04265 8.83414e-05 1846.9 273.117 5.02439 5.02417 -0.447404 -0.688797 1.42934e+06 
75 -0.04255 8.83425e-05 1846.9 273.113 5.02438 5.02417 -0.430264 -0.694851 1.42922e+06 
51 -0.04495 8.83425e-05 1846.91 273.115 5.02442 5.02386 -0.391852 -0.630781 1.42851e+06 
52 -0.04485 8.83416e-05 1846.91 273.114 5.02433 5.02373 -0.382609 -0.62355 1.42844e+06 
53 -0.04475 8.83413e-05 1846.9 273.115 5.02434 5.02387 -0.399501 -0.646541 1.42861e+06 
54 -0.04465 8.83418e-05 1846.91 273.113 5.02434 5.02376 -0.368979 -0.610581 1.42848e+06 
55 -0.04455 8.83422e-05 1846.91 273.115 5.02439 5.02387 -0.378393 -0.600115 1.42859e+06 
56 -0.04445 8.83415e-05 1846.9 273.113 5.02432 5.02386 -0.352205 -0.556902 1.42857e+06 
57 -0.04435 8.83417e-05 1846.91 273.113 5.02434 5.02392 -0.367131 -0.569248 1.42866e+06 
58 -0.04425 8.8343e-05 1846.91 273.113 5.02439 5.02398 -0.378068 -0.569087 1.42867e+06 
59 -0.04415 8.83409e-05 1846.9 273.114 5.0243 5.02394 -0.357658 -0.521831 1.42874e+06 
60 -0.04405 8.83415e-05 1846.91 273.114 5.02434 5.02396 -0.359191 -0.542932 1.42871e+06 
61 -0.04395 8.83422e-05 1846.9 273.114 5.02438 5.02408 -0.360877 -0.568567 1.4287e+06 
62 -0.04385 8.8342e-05 1846.9 273.114 5.02437 5.02398 -0.371426 -0.564864 1.42874e+06 
63 -0.04375 8.83411e-05 1846.91 273.113 5.02428 5.02396 -0.371868 -0.60623 1.42872e+06 
64 -0.04365 8.83425e-05 1846.9 273.113 5.02438 5.02404 -0.388776 -0.648877 1.42883e+06 
100 -0.04005 8.83423e-05 1846.9 273.123 5.02454 5.02454 -0.676289 -1.0363 1.43059e+06 
97 -0.04035 8.83414e-05 1846.9 273.12 5.02443 5.02439 -0.615441 -0.91085 1.43031e+06 
98 -0.04025 8.83426e-05 1846.9 273.118 5.02447 5.0245 -0.653469 -0.973552 1.43043e+06 
99 -0.04015 8.83414e-05 1846.9 273.121 5.02447 5.02448 -0.63623 -0.945468 1.43039e+06 
76 -0.04245 8.83424e-05 1846.9 273.114 5.02439 5.02415 -0.437912 -0.704297 1.42931e+06 
77 -0.04235 8.83411e-05 1846.9 273.116 5.02434 5.02412 -0.448043 -0.694222 1.42931e+06 
78 -0.04225 8.83427e-05 1846.91 273.114 5.02441 5.02417 -0.456107 -0.736806 1.42939e+06 
79 -0.04215 8.83416e-05 1846.9 273.116 5.02437 5.02417 -0.460145 -0.743078 1.42943e+06 
80 -0.04205 8.83418e-05 1846.9 273.115 5.02436 5.02413 -0.497648 -0.778297 1.42951e+06 
81 -0.04195 8.8342e-05 1846.9 273.116 5.0244 5.02415 -0.448846 -0.726064 1.4294e+06 
82 -0.04185 8.83421e-05 1846.91 273.114 5.02438 5.02414 -0.469124 -0.708219 1.42948e+06 
83 -0.04175 8.83423e-05 1846.9 273.114 5.02437 5.0241 -0.475355 -0.72417 1.42947e+06 
84 -0.04165 8.83416e-05 1846.9 273.116 5.02438 5.02406 -0.482625 -0.716564 1.42956e+06 
85 -0.04155 8.83421e-05 1846.9 273.115 5.0244 5.02413 -0.513686 -0.724792 1.4296e+06 
86 -0.04145 8.83418e-05 1846.91 273.117 5.02441 5.0241 -0.524068 -0.737043 1.42975e+06 
87 -0.04135 8.83424e-05 1846.9 273.116 5.02443 5.02413 -0.517043 -0.686311 1.42973e+06 
88 -0.04125 8.83417e-05 1846.9 273.116 5.02438 5.02408 -0.540032 -0.725217 1.42975e+06 
89 -0.04115 8.83419e-05 1846.9 273.118 5.02443 5.02421 -0.572965 -0.785663 1.42996e+06 
90 -0.04105 8.83415e-05 1846.9 273.118 5.0244 5.02426 -0.603733 -0.839426 1.43007e+06 
91 -0.04095 8.83422e-05 1846.9 273.119 5.02446 5.02428 -0.568309 -0.796399 1.42989e+06 
92 -0.04085 8.83418e-05 1846.9 273.116 5.0244 5.02429 -0.59625 -0.830679 1.43008e+06 
93 -0.04075 8.83423e-05 1846.9 273.119 5.02446 5.02434 -0.591053 -0.825033 1.43001e+06 
94 -0.04065 8.83415e-05 1846.9 273.119 5.02443 5.0243 -0.555019 -0.804733 1.43004e+06 
95 -0.04055 8.83422e-05 1846.9 273.116 5.02442 5.02436 -0.567082 -0.825706 1.43004e+06 
96 -0.04045 8.83418e-05 1846.9 273.12 5.02446 5.02455 -0.596143 -0.874426 1.43029e+06 
101 -0.03995 8.83417e-05 1846.9 273.121 5.02447 5.0245 -0.750675 -1.09154 1.4307e+06 
102 -0.03985 8.83423e-05 1846.9 273.12 5.02448 5.02452 -0.684386 -1.03424 1.43065e+06 
103 -0.03975 8.83419e-05 1846.9 273.124 5.02454 5.02462 -0.693428 -1.03669 1.43075e+06 
104 -0.03965 8.83419e-05 1846.9 273.12 5.02446 5.02451 -0.690238 -1.05983 1.43069e+06 
105 -0.03955 8.83419e-05 1846.9 273.123 5.02452 5.02451 -0.676078 -1.02722 1.43081e+06 
106 -0.03945 8.83432e-05 1846.9 273.12 5.02454 5.0246 -0.713398 -1.07921 1.43088e+06 
107 -0.03935 8.83407e-05 1846.9 273.123 5.02446 5.02455 -0.720029 -1.06205 1.43094e+06 
108 -0.03925 8.83426e-05 1846.9 273.12 5.02451 5.0246 -0.726923 -1.09208 1.43107e+06 
109 -0.03915 8.83417e-05 1846.9 273.124 5.02454 5.02458 -0.745379 -1.114 1.43117e+06 
110 -0.03905 8.83421e-05 1846.9 273.122 5.02451 5.02451 -0.69432 -1.05803 1.43103e+06 
111 -0.03895 8.83424e-05 1846.9 273.122 5.02454 5.02462 -0.708657 -1.10322 1.43108e+06 
112 -0.03885 8.83421e-05 1846.9 273.122 5.02451 5.02464 -0.739387 -1.13491 1.43122e+06 
113 -0.03875 8.83415e-05 1846.9 273.123 5.02449 5.02459 -0.747096 -1.16599 1.43128e+06 
114 -0.03865 8.83423e-05 1846.9 273.123 5.02454 5.02474 -0.783582 -1.22194 1.43146e+06 
115 -0.03855 8.83423e-05 1846.9 273.123 5.02455 5.0247 -0.788478 -1.25278 1.43147e+06 
116 -0.03845 8.83416e-05 1846.9 273.126 5.02456 5.02471 -0.84949 -1.30571 1.43188e+06 
117 -0.03835 8.83421e-05 1846.9 273.124 5.02456 5.02473 -0.810098 -1.27662 1.43167e+06 
118 -0.03825 8.83422e-05 1846.9 273.127 5.02461 5.02479 -0.848582 -1.36202 1.432e+06 
119 -0.03815 8.83418e-05 1846.9 273.126 5.02457 5.02474 -0.850295 -1.33179 1.43187e+06 
120 -0.03805 8.83421e-05 1846.9 273.128 5.02463 5.02482 -0.941893 -1.4266 1.43228e+06 
121 -0.03795 8.8342e-05 1846.9 273.129 5.02463 5.02479 -0.988555 -1.493 1.4325e+06 
122 -0.03785 8.83422e-05 1846.9 273.127 5.02462 5.0248 -1.0167 -1.53317 1.43264e+06 
123 -0.03775 8.83417e-05 1846.9 273.13 5.02463 5.02471 -1.01036 -1.58255 1.43265e+06 
124 -0.03765 8.83413e-05 1846.9 273.127 5.02456 5.02471 -1.00449 -1.52476 1.43269e+06 
125 -0.03755 8.83425e-05 1846.9 273.128 5.02465 5.02468 -0.994547 -1.51512 1.43269e+06 
134 -0.03665 8.83424e-05 1846.9 273.133 5.02473 5.02491 -1.21668 -1.84305 1.43402e+06 
129 -0.03715 8.83422e-05 1846.9 273.13 5.02467 5.02477 -1.13327 -1.67465 1.43346e+06 
130 -0.03705 8.83416e-05 1846.9 273.131 5.02466 5.02481 -1.12083 -1.64432 1.43351e+06 
131 -0.03695 8.83423e-05 1846.9 273.132 5.02471 5.02482 -1.18234 -1.74317 1.43368e+06 
132 -0.03685 8.83417e-05 1846.9 273.13 5.02463 5.02477 -1.16764 -1.74201 1.43367e+06 
133 -0.03675 8.83419e-05 1846.9 273.132 5.02469 5.0248 -1.17661 -1.7669 1.43372e+06 
135 -0.03655 8.83415e-05 1846.9 273.133 5.02468 5.02483 -1.23196 -1.86901 1.43403e+06 
136 -0.03645 8.83422e-05 1846.9 273.134 5.02475 5.02493 -1.30335 -1.96714 1.43431e+06 
137 -0.03635 8.83416e-05 1846.9 273.134 5.02471 5.02487 -1.3452 -2.01563 1.43456e+06 
138 -0.03625 8.83412e-05 1846.9 273.135 5.02471 5.02484 -1.38616 -2.08426 1.43481e+06 
139 -0.03615 8.83427e-05 1846.9 273.135 5.02479 5.02503 -1.39296 -2.08744 1.4349e+06 
140 -0.03605 8.83418e-05 1846.9 273.136 5.02476 5.02499 -1.3838 -2.10204 1.43496e+06 
141 -0.03595 8.83414e-05 1846.9 273.137 5.02474 5.02503 -1.52508 -2.24804 1.43553e+06 
142 -0.03585 8.83424e-05 1846.9 273.14 5.02487 5.02519 -1.53918 -2.31867 1.43573e+06 
143 -0.03575 8.83424e-05 1846.9 273.14 5.02485 5.02533 -1.61076 -2.43888 1.43611e+06 
144 -0.03565 8.83418e-05 1846.9 273.139 5.0248 5.02517 -1.51713 -2.32359 1.43583e+06 
145 -0.03555 8.83419e-05 1846.9 273.137 5.02478 5.02519 -1.47776 -2.2705 1.43568e+06 
146 -0.03545 8.8342e-05 1846.9 273.139 5.02483 5.02518 -1.52797 -2.33964 1.43605e+06 
147 -0.03535 8.83416e-05 1846.9 273.14 5.02482 5.02529 -1.62154 -2.46522 1.43645e+06 
148 -0.03525 8.83423e-05 1846.9 273.14 5.02485 5.02529 -1.67344 -2.51017 1.43675e+06 
149 -0.03515 8.83419e-05 1846.9 273.146 5.02494 5.02542 -1.82713 -2.72158 1.43748e+06 
150 -0.03505 8.83425e-05 1846.9 273.143 5.02492 5.02546 -1.76576 -2.62078 1.4373e+06 
126 -0.03745 8.83418e-05 1846.9 273.131 5.02467 5.02472 -1.03948 -1.56985 1.43287e+06 
127 -0.03735 8.83426e-05 1846.9 273.131 5.02471 5.02479 -1.1006 -1.65155 1.43313e+06 
128 -0.03725 8.83423e-05 1846.9 273.128 5.02464 5.02477 -1.06799 -1.62191 1.43311e+06 
167 -0.03335 8.83422e-05 1846.89 273.166 5.02533 5.02618 -2.82256 -4.1657 1.44315e+06 
161 -0.03395 8.83419e-05 1846.89 273.155 5.02511 5.02579 -2.29129 -3.46767 1.44045e+06 
162 -0.03385 8.83419e-05 1846.89 273.154 5.0251 5.02579 -2.34624 -3.55224 1.44082e+06 
163 -0.03375 8.83427e-05 1846.89 273.158 5.02522 5.02596 -2.52958 -3.76606 1.4415e+06 
164 -0.03365 8.83418e-05 1846.9 273.158 5.02516 5.02593 -2.55711 -3.79895 1.44179e+06 
165 -0.03355 8.83424e-05 1846.89 273.162 5.02527 5.02607 -2.66428 -3.96 1.44238e+06 
166 -0.03345 8.83426e-05 1846.89 273.164 5.02532 5.02614 -2.90215 -4.26603 1.44331e+06 
168 -0.03325 8.83418e-05 1846.89 273.168 5.02534 5.02622 -2.97086 -4.3781 1.44385e+06 
169 -0.03315 8.8342e-05 1846.89 273.168 5.02535 5.02632 -3.11508 -4.53946 1.44453e+06 
170 -0.03305 8.8343e-05 1846.89 273.174 5.02553 5.02639 -3.19618 -4.70541 1.44503e+06 
171 -0.03295 8.83421e-05 1846.89 273.174 5.02547 5.02635 -3.29843 -4.80081 1.44557e+06 
172 -0.03285 8.8342e-05 1846.89 273.174 5.02546 5.02632 -3.33704 -4.90278 1.44589e+06 
173 -0.03275 8.83415e-05 1846.89 273.176 5.02547 5.02631 -3.36959 -5.03037 1.44638e+06 
174 -0.03265 8.83427e-05 1846.89 273.178 5.02558 5.02647 -3.49861 -5.20017 1.44698e+06 
175 -0.03255 8.83423e-05 1846.89 273.18 5.0256 5.02642 -3.61455 -5.32139 1.44758e+06 
151 -0.03495 8.83416e-05 1846.9 273.146 5.02493 5.02541 -1.80407 -2.69186 1.43752e+06 
152 -0.03485 8.83428e-05 1846.9 273.145 5.02497 5.02548 -1.90163 -2.82885 1.43798e+06 
153 -0.03475 8.83419e-05 1846.89 273.148 5.02498 5.0256 -1.94538 -2.87423 1.43832e+06 
154 -0.03465 8.83435e-05 1846.9 273.152 5.02515 5.02567 -2.12778 -3.07833 1.43919e+06 
155 -0.03455 8.83415e-05 1846.89 273.147 5.02493 5.0256 -2.00189 -2.98847 1.43875e+06 
156 -0.03445 8.83433e-05 1846.9 273.149 5.02508 5.02568 -2.01847 -3.06485 1.43887e+06 
157 -0.03435 8.83411e-05 1846.9 273.151 5.02498 5.02567 -2.11115 -3.16521 1.43933e+06 
158 -0.03425 8.83426e-05 1846.89 273.151 5.02508 5.02575 -2.14381 -3.20553 1.43963e+06 
159 -0.03415 8.83419e-05 1846.89 273.154 5.0251 5.02574 -2.26115 -3.31895 1.44016e+06 
160 -0.03405 8.83427e-05 1846.89 273.151 5.02509 5.0258 -2.27829 -3.41643 1.44027e+06 
200 -0.03005 8.83424e-05 1846.88 273.26 5.02706 5.02876 -7.76119 -11.2496 1.47095e+06 
193 -0.03075 8.83422e-05 1846.88 273.231 5.02653 5.02793 -6.30613 -9.24425 1.46273e+06 
194 -0.03065 8.83427e-05 1846.88 273.239 5.02669 5.02807 -6.46519 -9.47766 1.46366e+06 
195 -0.03055 8.83428e-05 1846.88 273.242 5.02676 5.02823 -6.75217 -9.8342 1.46518e+06 
196 -0.03045 8.83426e-05 1846.88 273.245 5.0268 5.02823 -6.87055 -9.99312 1.46582e+06 
197 -0.03035 8.83436e-05 1846.88 273.245 5.02686 5.02838 -7.04479 -10.2468 1.46712e+06 
198 -0.03025 8.83419e-05 1846.88 273.254 5.02693 5.02848 -7.28268 -10.5118 1.46816e+06 
199 -0.03015 8.83423e-05 1846.88 273.257 5.02702 5.02864 -7.42448 -10.7827 1.46921e+06 
176 -0.03245 8.83422e-05 1846.89 273.181 5.0256 5.02642 -3.7084 -5.46213 1.44822e+06 
177 -0.03235 8.8342e-05 1846.89 273.186 5.02568 5.02664 -3.89635 -5.7295 1.44902e+06 
178 -0.03225 8.83428e-05 1846.89 273.188 5.02576 5.02667 -3.96339 -5.84185 1.44948e+06 
179 -0.03215 8.83419e-05 1846.89 273.189 5.02574 5.02663 -4.1243 -6.09522 1.45033e+06 
180 -0.03205 8.83416e-05 1846.89 273.193 5.0258 5.02669 -4.2929 -6.26822 1.45113e+06 
181 -0.03195 8.83429e-05 1846.89 273.196 5.02592 5.02687 -4.52794 -6.55176 1.45199e+06 
182 -0.03185 8.83414e-05 1846.89 273.202 5.02594 5.02694 -4.70202 -6.75826 1.45307e+06 
183 -0.03175 8.83434e-05 1846.89 273.204 5.02609 5.02704 -4.79587 -6.87516 1.45367e+06 
184 -0.03165 8.8342e-05 1846.89 273.205 5.02604 5.02702 -4.89975 -7.09566 1.45447e+06 
185 -0.03155 8.83423e-05 1846.89 273.21 5.02614 5.02715 -5.08781 -7.356 1.45538e+06 
186 -0.03145 8.83423e-05 1846.89 273.212 5.02618 5.02729 -5.25826 -7.6243 1.45631e+06 
187 -0.03135 8.83425e-05 1846.89 273.215 5.02624 5.0273 -5.31799 -7.72372 1.45701e+06 
188 -0.03125 8.83427e-05 1846.89 273.219 5.02633 5.02743 -5.46358 -7.979 1.4578e+06 
189 -0.03115 8.83423e-05 1846.89 273.219 5.02632 5.02749 -5.62527 -8.16004 1.45865e+06 
190 -0.03105 8.83421e-05 1846.88 273.222 5.02634 5.02758 -5.73593 -8.41113 1.45953e+06 
191 -0.03095 8.83429e-05 1846.88 273.228 5.02652 5.02781 -6.03573 -8.8134 1.46104e+06 
192 -0.03085 8.83436e-05 1846.88 273.232 5.02662 5.02795 -6.17258 -9.03734 1.46186e+06 
201 -0.02995 8.83439e-05 1846.87 273.268 5.0273 5.029 -7.92757 -11.5234 1.47197e+06 
225 -0.02755 8.83445e-05 1846.84 273.445 5.03059 5.03499 -16.9147 -24.9841 1.52164e+06 
202 -0.02985 8.83424e-05 1846.87 273.27 5.02726 5.02915 -8.25061 -12.0428 1.4737e+06 
203 -0.02975 8.83433e-05 1846.87 273.281 5.0275 5.02948 -8.60693 -12.5194 1.47573e+06 
204 -0.02965 8.83424e-05 1846.87 273.286 5.02755 5.02957 -8.90549 -12.9605 1.47719e+06 
205 -0.02955 8.83432e-05 1846.87 273.291 5.02769 5.0298 -9.17627 -13.3813 1.47885e+06 
206 -0.02945 8.83427e-05 1846.87 273.296 5.02775 5.03002 -9.47213 -13.864 1.48052e+06 
207 -0.02935 8.83436e-05 1846.87 273.299 5.02786 5.03018 -9.70513 -14.1781 1.48176e+06 
208 -0.02925 8.83429e-05 1846.87 273.31 5.02802 5.03044 -10.1238 -14.7831 1.48407e+06 
209 -0.02915 8.83439e-05 1846.86 273.321 5.02828 5.03085 -10.6356 -15.5318 1.48661e+06 
210 -0.02905 8.83437e-05 1846.86 273.324 5.02831 5.03093 -10.7731 -15.6879 1.48774e+06 
211 -0.02895 8.83429e-05 1846.86 273.327 5.02834 5.0309 -10.9676 -15.9993 1.48917e+06 
212 -0.02885 8.83445e-05 1846.86 273.329 5.02847 5.03113 -11.1795 -16.4022 1.49046e+06 
213 -0.02875 8.83432e-05 1846.86 273.34 5.02859 5.03146 -11.6622 -17.1326 1.49295e+06 
214 -0.02865 8.83433e-05 1846.86 273.348 5.02874 5.03171 -11.9307 -17.5505 1.49458e+06 
215 -0.02855 8.83442e-05 1846.86 273.349 5.02881 5.03181 -12.155 -17.9024 1.496e+06 
216 -0.02845 8.83432e-05 1846.85 273.362 5.02899 5.03213 -12.7532 -18.7034 1.49912e+06 
217 -0.02835 8.83444e-05 1846.85 273.37 5.0292 5.03244 -13.1125 -19.1565 1.5008e+06 
218 -0.02825 8.83442e-05 1846.85 273.375 5.02928 5.03265 -13.3267 -19.5888 1.50236e+06 
219 -0.02815 8.83438e-05 1846.85 273.383 5.02942 5.03292 -13.7275 -20.2941 1.50465e+06 
220 -0.02805 8.83444e-05 1846.85 273.392 5.02961 5.03328 -14.2302 -20.9929 1.5072e+06 
221 -0.02795 8.8344e-05 1846.85 273.401 5.02976 5.03347 -14.6286 -21.6316 1.50951e+06 
222 -0.02785 8.83443e-05 1846.85 273.411 5.02995 5.03375 -15.1844 -22.4234 1.51237e+06 
223 -0.02775 8.83446e-05 1846.84 273.419 5.03011 5.0341 -15.558 -23.0168 1.51461e+06 
224 -0.02765 8.83446e-05 1846.84 273.432 5.03037 5.03454 -16.2812 -24.0533 1.51844e+06 
234 -0.02665 8.83455e-05 1846.82 273.548 5.03254 5.03837 -22.0186 -32.5598 1.55021e+06 
226 -0.02745 8.83442e-05 1846.84 273.45 5.03067 5.03508 -17.1092 -25.2585 1.52334e+06 
227 -0.02735 8.83444e-05 1846.84 273.458 5.03083 5.03523 -17.5899 -25.9386 1.52589e+06 
228 -0.02725 8.83453e-05 1846.83 273.47 5.0311 5.03579 -18.1477 -26.8644 1.52918e+06 
229 -0.02715 8.83452e-05 1846.83 273.48 5.03127 5.03618 -18.6422 -27.7242 1.53199e+06 
230 -0.02705 8.83445e-05 1846.83 273.497 5.03156 5.03664 -19.39 -28.6117 1.53582e+06 
231 -0.02695 8.83451e-05 1846.83 273.505 5.03174 5.03694 -19.9178 -29.444 1.53876e+06 
232 -0.02685 8.83448e-05 1846.82 273.521 5.03201 5.03743 -20.6151 -30.5566 1.54272e+06 
233 -0.02675 8.83459e-05 1846.82 273.533 5.03229 5.03794 -21.2804 -31.4354 1.5461e+06 
235 -0.02655 8.83457e-05 1846.81 273.565 5.03287 5.03886 -22.8397 -33.7188 1.55436e+06 
236 -0.02645 8.83454e-05 1846.81 273.586 5.03324 5.0395 -23.9202 -35.1089 1.5598e+06 
237 -0.02635 8.83468e-05 1846.81 273.603 5.03362 5.04017 -24.7249 -36.2727 1.56427e+06 
238 -0.02625 8.83455e-05 1846.81 273.617 5.03381 5.04059 -25.4133 -37.4762 1.56869e+06 
239 -0.02615 8.8346e-05 1846.8 273.634 5.03415 5.04106 -26.1285 -38.4525 1.57217e+06 
240 -0.02605 8.83472e-05 1846.8 273.642 5.03437 5.04144 -26.7108 -39.3739 1.57613e+06 
241 -0.02595 8.83465e-05 1846.8 273.664 5.03473 5.04213 -27.7922 -40.9748 1.58166e+06 
242 -0.02585 8.83466e-05 1846.79 273.69 5.03521 5.04277 -28.8616 -42.3696 1.5873e+06 
243 -0.02575 8.83469e-05 1846.79 273.704 5.03549 5.04336 -29.7345 -43.6692 1.59211e+06 
244 -0.02565 8.83474e-05 1846.78 273.726 5.03592 5.04405 -30.7884 -45.2745 1.5982e+06 
245 -0.02555 8.83477e-05 1846.78 273.74 5.0362 5.04451 -31.5427 -46.4841 1.60257e+06 
246 -0.02545 8.83479e-05 1846.78 273.765 5.03668 5.04528 -32.8116 -48.1272 1.60892e+06 
247 -0.02535 8.83484e-05 1846.77 273.779 5.03696 5.04591 -33.5438 -49.6181 1.61366e+06 
248 -0.02525 8.83485e-05 1846.77 273.807 5.03749 5.04665 -34.8368 -51.2149 1.6203e+06 
249 -0.02515 8.83481e-05 1846.76 273.831 5.03789 5.04735 -35.9756 -52.8542 1.62648e+06 
250 -0.02505 8.83493e-05 1846.76 273.858 5.03847 5.04828 -37.2802 -54.7481 1.63337e+06 
267 -0.02335 8.83547e-05 1846.65 274.41 5.04893 5.06659 -64.8724 -95.9169 1.78446e+06 
257 -0.02435 8.83511e-05 1846.72 274.054 5.04217 5.05481 -47.0943 -69.217 1.68658e+06 
258 -0.02425 8.83502e-05 1846.71 274.079 5.04258 5.05556 -48.3969 -71.4181 1.69436e+06 
259 -0.02415 8.83522e-05 1846.71 274.113 5.04331 5.05664 -50.0262 -73.7029 1.70304e+06 
260 -0.02405 8.8352e-05 1846.7 274.149 5.04398 5.05796 -51.9326 -76.5472 1.71299e+06 
261 -0.02395 8.83522e-05 1846.69 274.183 5.04462 5.05892 -53.4946 -78.8058 1.72176e+06 
262 -0.02385 8.83519e-05 1846.68 274.222 5.0453 5.06021 -55.416 -81.6043 1.73211e+06 
263 -0.02375 8.83539e-05 1846.68 274.254 5.04601 5.06141 -57.1934 -84.3836 1.7419e+06 
264 -0.02365 8.83528e-05 1846.67 274.283 5.0465 5.06243 -58.4703 -86.6069 1.74972e+06 
265 -0.02355 8.83533e-05 1846.67 274.318 5.04715 5.06356 -60.2837 -89.329 1.76008e+06 
266 -0.02345 8.83542e-05 1846.65 274.365 5.04807 5.06524 -62.6168 -92.6635 1.77194e+06 
268 -0.02325 8.83548e-05 1846.64 274.454 5.04975 5.06802 -66.9581 -98.8376 1.79571e+06 
269 -0.02315 8.83552e-05 1846.63 274.496 5.05055 5.06946 -69.1566 -102.079 1.80726e+06 
270 -0.02305 8.83561e-05 1846.62 274.539 5.05138 5.071 -71.4434 -105.636 1.82019e+06 
271 -0.02295 8.83556e-05 1846.61 274.578 5.05207 5.07209 -73.0971 -108.148 1.83007e+06 
272 -0.02285 8.83569e-05 1846.6 274.622 5.05295 5.07372 -75.3545 -111.72 1.8425e+06 
273 -0.02275 8.83562e-05 1846.59 274.671 5.05381 5.07527 -77.8539 -115.327 1.85623e+06 
274 -0.02265 8.83576e-05 1846.58 274.733 5.05504 5.07736 -80.8507 -119.646 1.87194e+06 
275 -0.02255 8.83582e-05 1846.57 274.79 5.05613 5.07936 -83.7887 -124.132 1.8873e+06 
251 -0.02495 8.83493e-05 1846.75 273.889 5.03904 5.04928 -38.9971 -57.0762 1.64195e+06 
252 -0.02485 8.83486e-05 1846.75 273.911 5.0394 5.05 -40.0032 -58.8327 1.64832e+06 
253 -0.02475 8.83503e-05 1846.74 273.936 5.03996 5.05096 -41.1803 -60.6341 1.65428e+06 
254 -0.02465 8.83499e-05 1846.74 273.957 5.04033 5.05165 -42.3352 -62.4031 1.66128e+06 
255 -0.02455 8.83501e-05 1846.73 273.988 5.0409 5.05255 -43.7865 -64.6464 1.66932e+06 
256 -0.02445 8.83507e-05 1846.73 274.017 5.04148 5.0536 -45.2595 -66.7174 1.67716e+06 
300 -0.02005 8.83798e-05 1846.12 277.02 5.09841 5.15256 -194.88 -288.03 2.48721e+06 
289 -0.02115 8.83665e-05 1846.37 275.783 5.07487 5.11188 -133.151 -197.304 2.15619e+06 
290 -0.02105 8.83686e-05 1846.35 275.879 5.07676 5.11497 -137.964 -204.196 2.18174e+06 
291 -0.02095 8.83696e-05 1846.33 275.958 5.07827 5.11758 -141.954 -210.327 2.20417e+06 
292 -0.02085 8.83698e-05 1846.31 276.064 5.08022 5.12092 -147.146 -217.757 2.23177e+06 
293 -0.02075 8.83709e-05 1846.29 276.159 5.08205 5.12413 -151.969 -224.917 2.25787e+06 
294 -0.02065 8.83723e-05 1846.27 276.27 5.08417 5.12782 -157.477 -233.068 2.28726e+06 
295 -0.02055 8.83733e-05 1846.24 276.404 5.08669 5.13222 -164.182 -242.673 2.32278e+06 
296 -0.02045 8.83746e-05 1846.22 276.504 5.0886 5.13549 -169.124 -250.05 2.34915e+06 
297 -0.02035 8.83752e-05 1846.2 276.615 5.09068 5.1391 -174.682 -258.552 2.38062e+06 
298 -0.02025 8.83765e-05 1846.17 276.74 5.09305 5.14312 -180.822 -267.166 2.41294e+06 
299 -0.02015 8.83778e-05 1846.15 276.877 5.09566 5.14767 -187.651 -277.219 2.44887e+06 
276 -0.02245 8.83589e-05 1846.55 274.853 5.05733 5.08145 -86.9187 -128.709 1.90426e+06 
277 -0.02235 8.83591e-05 1846.54 274.907 5.05832 5.08302 -89.5406 -132.508 1.91868e+06 
278 -0.02225 8.83596e-05 1846.53 274.969 5.05949 5.08503 -92.6932 -137.069 1.93571e+06 
279 -0.02215 8.83607e-05 1846.52 275.026 5.06061 5.08695 -95.4572 -141.311 1.95097e+06 
280 -0.02205 8.83608e-05 1846.51 275.088 5.06176 5.08899 -98.6286 -146.002 1.96892e+06 
281 -0.02195 8.83615e-05 1846.49 275.158 5.06309 5.09118 -102.029 -150.833 1.98688e+06 
282 -0.02185 8.83619e-05 1846.48 275.229 5.06442 5.09348 -105.709 -156.113 2.00676e+06 
283 -0.02175 8.83629e-05 1846.47 275.303 5.06583 5.09595 -109.269 -161.455 2.02603e+06 
284 -0.02165 8.83634e-05 1846.45 275.373 5.06715 5.09828 -112.806 -166.634 2.04504e+06 
285 -0.02155 8.83645e-05 1846.44 275.448 5.0686 5.10082 -116.498 -172.369 2.06608e+06 
286 -0.02145 8.83648e-05 1846.42 275.539 5.07028 5.10379 -121.085 -178.915 2.08937e+06 
287 -0.02135 8.83656e-05 1846.4 275.62 5.07182 5.10646 -125.034 -184.985 2.11153e+06 
288 -0.02125 8.83679e-05 1846.39 275.691 5.07325 5.10891 -128.653 -190.476 2.13101e+06 
301 -0.01995 8.83802e-05 1846.1 277.138 5.1006 5.15622 -200.731 -296.854 2.52034e+06 
321 -0.01795 8.84179e-05 1845.31 280.967 5.17328 5.28351 -391.248 -580.584 3.55018e+06 
322 -0.01785 8.8421e-05 1845.26 281.243 5.17854 5.29264 -405.095 -600.905 3.62377e+06 
323 -0.01775 8.84232e-05 1845.2 281.531 5.18396 5.30266 -419.412 -622.778 3.70111e+06 
324 -0.01765 8.84261e-05 1845.14 281.813 5.18933 5.31207 -433.419 -643.892 3.77721e+06 
325 -0.01755 8.84291e-05 1845.08 282.126 5.19528 5.32247 -449.059 -666.906 3.86072e+06 
302 -0.01985 8.83819e-05 1846.07 277.277 5.10325 5.16096 -207.526 -307.061 2.55645e+06 
303 -0.01975 8.83838e-05 1846.04 277.416 5.10592 5.16538 -214.574 -317.164 2.5942e+06 
304 -0.01965 8.8384e-05 1846.01 277.572 5.10881 5.17064 -222.388 -328.974 2.63646e+06 
305 -0.01955 8.83862e-05 1845.98 277.723 5.1117 5.17565 -229.729 -339.986 2.67634e+06 
306 -0.01945 8.83877e-05 1845.95 277.873 5.11456 5.18062 -237.387 -351.164 2.71804e+06 
307 -0.01935 8.83893e-05 1845.91 278.046 5.11783 5.18627 -245.796 -363.687 2.76311e+06 
308 -0.01925 8.83904e-05 1845.88 278.186 5.12048 5.19103 -252.866 -374.906 2.80361e+06 
309 -0.01915 8.83922e-05 1845.85 278.349 5.12358 5.19664 -261.066 -387.602 2.84925e+06 
310 -0.01905 8.83941e-05 1845.81 278.526 5.12695 5.20228 -269.69 -400.045 2.89499e+06 
311 -0.01895 8.83957e-05 1845.77 278.712 5.13047 5.20847 -279.169 -414.212 2.94731e+06 
312 -0.01885 8.83978e-05 1845.74 278.904 5.13411 5.21476 -288.5 -428.013 2.99711e+06 
313 -0.01875 8.83982e-05 1845.7 279.088 5.13752 5.22063 -297.771 -441.497 3.04798e+06 
314 -0.01865 8.84019e-05 1845.66 279.293 5.14152 5.22752 -307.988 -456.686 3.10308e+06 
315 -0.01855 8.84032e-05 1845.61 279.515 5.14567 5.23508 -319.14 -473.38 3.1626e+06 
316 -0.01845 8.84059e-05 1845.57 279.731 5.14983 5.24233 -329.897 -489.337 3.22005e+06 
317 -0.01835 8.84076e-05 1845.52 279.969 5.1543 5.25006 -341.633 -506.363 3.28248e+06 
318 -0.01825 8.841e-05 1845.47 280.203 5.15875 5.25797 -353.475 -524.294 3.34674e+06 
319 -0.01815 8.84126e-05 1845.42 280.442 5.1633 5.26583 -365.214 -541.912 3.41042e+06 
320 -0.01805 8.84147e-05 1845.37 280.7 5.16816 5.2744 -378.051 -560.69 3.47884e+06 
334 -0.01665 8.84615e-05 1844.41 285.383 5.25717 5.43094 -611.008 -907.583 4.72931e+06 
326 -0.01745 8.8432e-05 1845.01 282.466 5.2017 5.33376 -465.909 -691.679 3.94912e+06 
327 -0.01735 8.84348e-05 1844.95 282.756 5.2072 5.34292 -480.133 -712.697 4.02745e+06 
328 -0.01725 8.84389e-05 1844.88 283.089 5.21358 5.35438 -497.02 -738.143 4.11976e+06 
329 -0.01715 8.84417e-05 1844.81 283.42 5.21983 5.36524 -513.284 -762.32 4.20714e+06 
330 -0.01705 8.84453e-05 1844.73 283.799 5.22703 5.37808 -532.262 -790.499 4.3072e+06 
331 -0.01695 8.84489e-05 1844.66 284.141 5.23356 5.38952 -549.23 -816.266 4.40046e+06 
332 -0.01685 8.8453e-05 1844.58 284.55 5.24132 5.4028 -569.606 -845.613 4.50849e+06 
333 -0.01675 8.84563e-05 1844.5 284.96 5.24907 5.41652 -589.909 -875.918 4.61647e+06 
335 -0.01655 8.84653e-05 1844.32 285.826 5.26555 5.44556 -632.965 -939.715 4.84499e+06 
336 -0.01645 8.84702e-05 1844.23 286.275 5.27411 5.46057 -655.206 -972.92 4.96385e+06 
337 -0.01635 8.84751e-05 1844.12 286.788 5.28386 5.4781 -680.871 -1011.03 5.09874e+06 
338 -0.01625 8.84797e-05 1844.02 287.29 5.29339 5.49462 -705.794 -1047.35 5.23019e+06 
339 -0.01615 8.84848e-05 1843.92 287.779 5.30271 5.51105 -729.95 -1083.86 5.35966e+06 
340 -0.01605 8.84897e-05 1843.81 288.294 5.31248 5.52829 -755.69 -1122.34 5.49868e+06 
341 -0.01595 8.84955e-05 1843.7 288.854 5.32317 5.54701 -783.582 -1163.61 5.64683e+06 