ITEM: TIMESTEP
30000
ITEM: NUMBER OF CELLS
800
ITEM: BOX BOUNDS os pp pp
-0.05 0.03
-0.001 0.001
-0.001 0.001
ITEM: CELLS id f_1[1] f_1[2] f_1[3] f_1[4] f_1[5] f_1[6] f_1[7] f_1[8] f_1[9] 
1 -0.04995 8.83425e-05 1846.91 273.107 5.02425 5.02329 0.0513086 0.0426572 1.42653e+06 
2 -0.04985 8.83412e-05 1846.91 273.104 5.02414 5.02331 0.0391359 0.00287149 1.42659e+06 
3 -0.04975 8.8342e-05 1846.91 273.106 5.02421 5.02328 0.0290804 -0.0121752 1.42664e+06 
4 -0.04965 8.83417e-05 1846.9 273.107 5.02421 5.02341 -0.0142112 -0.101924 1.42673e+06 
5 -0.04955 8.83421e-05 1846.91 273.106 5.02422 5.02349 -0.032183 -0.148025 1.42681e+06 
6 -0.04945 8.8342e-05 1846.9 273.106 5.02422 5.02352 -0.0331157 -0.164848 1.42686e+06 
7 -0.04935 8.83413e-05 1846.9 273.108 5.0242 5.02348 -0.0460206 -0.199832 1.42687e+06 
8 -0.04925 8.83417e-05 1846.9 273.106 5.0242 5.02352 -0.0726146 -0.210106 1.42702e+06 
9 -0.04915 8.83415e-05 1846.9 273.107 5.0242 5.02356 -0.087623 -0.250379 1.4271e+06 
10 -0.04905 8.83425e-05 1846.9 273.11 5.02431 5.02375 -0.09157 -0.24986 1.42717e+06 
11 -0.04895 8.83419e-05 1846.9 273.109 5.02426 5.02369 -0.0955614 -0.282936 1.42718e+06 
12 -0.04885 8.83415e-05 1846.9 273.108 5.02423 5.0237 -0.090469 -0.25659 1.42721e+06 
13 -0.04875 8.83418e-05 1846.9 273.108 5.02424 5.02369 -0.0851983 -0.251098 1.42723e+06 
14 -0.04865 8.83423e-05 1846.9 273.109 5.02429 5.02376 -0.0866804 -0.235703 1.42729e+06 
15 -0.04855 8.83411e-05 1846.9 273.106 5.02417 5.02364 -0.0983809 -0.254074 1.42726e+06 
16 -0.04845 8.83423e-05 1846.9 273.109 5.02429 5.0238 -0.094258 -0.25018 1.42734e+06 
17 -0.04835 8.83421e-05 1846.9 273.108 5.02426 5.0238 -0.10591 -0.265841 1.42737e+06 
18 -0.04825 8.83418e-05 1846.9 273.109 5.02426 5.02385 -0.117861 -0.292687 1.42745e+06 
19 -0.04815 8.83421e-05 1846.9 273.109 5.02428 5.02383 -0.0959411 -0.256324 1.42743e+06 
20 -0.04805 8.83418e-05 1846.9 273.109 5.02426 5.0239 -0.115959 -0.288964 1.42748e+06 
21 -0.04795 8.83422e-05 1846.91 273.108 5.02427 5.02379 -0.103322 -0.27011 1.42745e+06 
22 -0.04785 8.83413e-05 1846.9 273.109 5.02423 5.02382 -0.109656 -0.240819 1.42749e+06 
23 -0.04775 8.83423e-05 1846.9 273.107 5.02426 5.02371 -0.110017 -0.267282 1.42747e+06 
24 -0.04765 8.83421e-05 1846.9 273.11 5.02429 5.0239 -0.132661 -0.330046 1.42759e+06 
25 -0.04755 8.83416e-05 1846.9 273.108 5.02423 5.02372 -0.127015 -0.3312 1.42754e+06 
34 -0.04665 8.83428e-05 1846.9 273.112 5.02437 5.02389 -0.177387 -0.372669 1.42787e+06 
33 -0.04675 8.83416e-05 1846.9 273.109 5.02425 5.02383 -0.138026 -0.31943 1.42781e+06 
35 -0.04655 8.8342e-05 1846.9 273.108 5.02426 5.02376 -0.156162 -0.32563 1.42779e+06 
36 -0.04645 8.8342e-05 1846.9 273.11 5.02429 5.02384 -0.163533 -0.356726 1.42783e+06 
37 -0.04635 8.83423e-05 1846.9 273.109 5.02429 5.02388 -0.184339 -0.414173 1.42786e+06 
38 -0.04625 8.83418e-05 1846.9 273.111 5.02429 5.02388 -0.179624 -0.392094 1.42787e+06 
39 -0.04615 8.83427e-05 1846.9 273.108 5.02429 5.02395 -0.17503 -0.413472 1.42791e+06 
40 -0.04605 8.83413e-05 1846.9 273.109 5.02423 5.02388 -0.170621 -0.380507 1.42789e+06 
41 -0.04595 8.83429e-05 1846.9 273.108 5.0243 5.024 -0.162359 -0.388141 1.42794e+06 
42 -0.04585 8.83416e-05 1846.9 273.11 5.02427 5.02397 -0.171867 -0.413245 1.42799e+06 
43 -0.04575 8.83416e-05 1846.9 273.11 5.02426 5.02397 -0.174791 -0.419313 1.42801e+06 
44 -0.04565 8.83431e-05 1846.9 273.108 5.02431 5.02409 -0.203313 -0.455516 1.42806e+06 
45 -0.04555 8.83421e-05 1846.9 273.112 5.02432 5.0241 -0.181976 -0.436863 1.42808e+06 
46 -0.04545 8.83418e-05 1846.9 273.109 5.02425 5.02411 -0.224252 -0.490732 1.42814e+06 
47 -0.04535 8.83421e-05 1846.9 273.111 5.02431 5.02408 -0.238212 -0.501983 1.42828e+06 
48 -0.04525 8.83425e-05 1846.9 273.11 5.02432 5.02404 -0.228822 -0.466356 1.42824e+06 
49 -0.04515 8.83418e-05 1846.9 273.112 5.02431 5.02411 -0.256917 -0.51066 1.42836e+06 
50 -0.04505 8.83425e-05 1846.9 273.107 5.02426 5.024 -0.261202 -0.48922 1.4283e+06 
26 -0.04745 8.83417e-05 1846.9 273.109 5.02425 5.02383 -0.149285 -0.304167 1.42762e+06 
27 -0.04735 8.83419e-05 1846.9 273.109 5.02426 5.02371 -0.156872 -0.311507 1.42758e+06 
28 -0.04725 8.83424e-05 1846.9 273.109 5.0243 5.02372 -0.138059 -0.299188 1.42761e+06 
29 -0.04715 8.83414e-05 1846.9 273.109 5.02424 5.02372 -0.14145 -0.28404 1.42763e+06 
30 -0.04705 8.83426e-05 1846.9 273.108 5.02429 5.02385 -0.154528 -0.32433 1.4277e+06 
31 -0.04695 8.83412e-05 1846.9 273.109 5.02422 5.02376 -0.11636 -0.263113 1.42769e+06 
32 -0.04685 8.83432e-05 1846.9 273.109 5.02434 5.02391 -0.170093 -0.353677 1.42783e+06 
67 -0.04335 8.83422e-05 1846.9 273.113 5.02435 5.02405 -0.335646 -0.621904 1.42886e+06 
65 -0.04355 8.83422e-05 1846.9 273.113 5.02435 5.02405 -0.33753 -0.62278 1.42884e+06 
66 -0.04345 8.83418e-05 1846.9 273.111 5.02429 5.02402 -0.349236 -0.607134 1.42885e+06 
68 -0.04325 8.83419e-05 1846.9 273.111 5.0243 5.02404 -0.343723 -0.588794 1.42885e+06 
69 -0.04315 8.8342e-05 1846.9 273.111 5.02432 5.02404 -0.348441 -0.588738 1.42889e+06 
70 -0.04305 8.83419e-05 1846.9 273.112 5.02431 5.024 -0.375582 -0.606985 1.42896e+06 
71 -0.04295 8.83419e-05 1846.9 273.112 5.02431 5.024 -0.332751 -0.555511 1.42894e+06 
72 -0.04285 8.8342e-05 1846.9 273.112 5.02433 5.02407 -0.332643 -0.568862 1.42893e+06 
73 -0.04275 8.83422e-05 1846.9 273.11 5.02431 5.02402 -0.3568 -0.607483 1.42893e+06 
74 -0.04265 8.83414e-05 1846.9 273.111 5.02427 5.024 -0.350142 -0.5595 1.42901e+06 
75 -0.04255 8.8342e-05 1846.9 273.113 5.02435 5.02406 -0.381144 -0.628717 1.42909e+06 
51 -0.04495 8.83417e-05 1846.9 273.113 5.02433 5.02407 -0.268335 -0.478562 1.42842e+06 
52 -0.04485 8.83421e-05 1846.9 273.11 5.0243 5.02402 -0.271203 -0.491648 1.4284e+06 
53 -0.04475 8.83418e-05 1846.9 273.109 5.02425 5.02402 -0.280635 -0.471477 1.42838e+06 
54 -0.04465 8.83417e-05 1846.9 273.113 5.02432 5.02397 -0.256253 -0.478783 1.42843e+06 
55 -0.04455 8.83413e-05 1846.9 273.111 5.02426 5.02395 -0.257193 -0.467618 1.42844e+06 
56 -0.04445 8.83428e-05 1846.9 273.111 5.02435 5.02399 -0.318381 -0.563375 1.42861e+06 
57 -0.04435 8.83411e-05 1846.9 273.11 5.02425 5.02389 -0.254495 -0.481288 1.42854e+06 
58 -0.04425 8.8342e-05 1846.9 273.11 5.0243 5.02394 -0.260323 -0.519527 1.4285e+06 
59 -0.04415 8.83422e-05 1846.9 273.11 5.02429 5.02395 -0.259901 -0.508547 1.42849e+06 
60 -0.04405 8.83414e-05 1846.9 273.11 5.02424 5.02387 -0.253537 -0.498078 1.42849e+06 
61 -0.04395 8.83427e-05 1846.9 273.109 5.02432 5.02385 -0.259922 -0.495995 1.4285e+06 
62 -0.04385 8.83417e-05 1846.9 273.11 5.02428 5.02394 -0.271404 -0.539996 1.42866e+06 
63 -0.04375 8.83425e-05 1846.9 273.111 5.02434 5.02398 -0.303669 -0.558258 1.42873e+06 
64 -0.04365 8.83417e-05 1846.9 273.111 5.02429 5.02396 -0.308389 -0.580716 1.42869e+06 
100 -0.04005 8.83416e-05 1846.9 273.119 5.02444 5.02435 -0.740022 -1.00385 1.4309e+06 
97 -0.04035 8.83417e-05 1846.9 273.119 5.02444 5.02432 -0.650299 -0.910462 1.43046e+06 
98 -0.04025 8.83424e-05 1846.9 273.115 5.0244 5.02426 -0.652849 -0.910756 1.43048e+06 
99 -0.04015 8.83419e-05 1846.9 273.12 5.02447 5.02435 -0.712929 -0.992796 1.43085e+06 
76 -0.04245 8.83412e-05 1846.9 273.112 5.02428 5.024 -0.385646 -0.600851 1.42907e+06 
77 -0.04235 8.83426e-05 1846.9 273.111 5.02434 5.02405 -0.378224 -0.597908 1.42904e+06 
78 -0.04225 8.83415e-05 1846.9 273.113 5.02431 5.02396 -0.385393 -0.579534 1.42912e+06 
79 -0.04215 8.8342e-05 1846.9 273.112 5.02433 5.02403 -0.418922 -0.614941 1.42919e+06 
80 -0.04205 8.83416e-05 1846.9 273.113 5.02432 5.02394 -0.427839 -0.628431 1.42925e+06 
81 -0.04195 8.83416e-05 1846.9 273.114 5.02434 5.02397 -0.459872 -0.677882 1.42932e+06 
82 -0.04185 8.83416e-05 1846.9 273.111 5.02429 5.02403 -0.445329 -0.669686 1.42936e+06 
83 -0.04175 8.8342e-05 1846.9 273.116 5.0244 5.02408 -0.491155 -0.751353 1.42953e+06 
84 -0.04165 8.83417e-05 1846.9 273.114 5.02434 5.02408 -0.451858 -0.676386 1.42947e+06 
85 -0.04155 8.83426e-05 1846.9 273.113 5.02438 5.02408 -0.497064 -0.758008 1.42957e+06 
86 -0.04145 8.83406e-05 1846.9 273.115 5.0243 5.024 -0.49663 -0.746916 1.42963e+06 
87 -0.04135 8.8342e-05 1846.9 273.114 5.02437 5.02419 -0.561615 -0.839907 1.42982e+06 
88 -0.04125 8.83428e-05 1846.9 273.118 5.02448 5.02425 -0.623383 -0.924877 1.43012e+06 
89 -0.04115 8.83414e-05 1846.9 273.115 5.02435 5.0242 -0.596351 -0.875425 1.43005e+06 
90 -0.04105 8.83426e-05 1846.9 273.118 5.02446 5.02429 -0.578673 -0.86144 1.43006e+06 
91 -0.04095 8.83417e-05 1846.9 273.117 5.0244 5.02421 -0.584529 -0.861025 1.43005e+06 
92 -0.04085 8.83418e-05 1846.9 273.118 5.02443 5.02425 -0.607815 -0.874499 1.4302e+06 
93 -0.04075 8.83422e-05 1846.9 273.116 5.02441 5.02428 -0.646192 -0.908938 1.43035e+06 
94 -0.04065 8.83416e-05 1846.9 273.116 5.02439 5.02423 -0.624471 -0.880151 1.43031e+06 
95 -0.04055 8.83418e-05 1846.9 273.118 5.02443 5.02422 -0.61271 -0.878689 1.43032e+06 
96 -0.04045 8.8342e-05 1846.9 273.117 5.02441 5.02427 -0.613655 -0.893149 1.43032e+06 
101 -0.03995 8.83421e-05 1846.9 273.118 5.02445 5.02437 -0.718712 -0.988045 1.43079e+06 
102 -0.03985 8.8342e-05 1846.9 273.121 5.02449 5.0244 -0.805621 -1.10084 1.43112e+06 
103 -0.03975 8.83424e-05 1846.9 273.121 5.02452 5.02449 -0.814118 -1.12834 1.43123e+06 
104 -0.03965 8.83425e-05 1846.9 273.121 5.02452 5.0245 -0.770074 -1.10463 1.43107e+06 
105 -0.03955 8.83414e-05 1846.9 273.119 5.02441 5.02437 -0.772596 -1.12167 1.431e+06 
106 -0.03945 8.83421e-05 1846.9 273.122 5.02451 5.02448 -0.77983 -1.12883 1.43114e+06 
107 -0.03935 8.83421e-05 1846.9 273.121 5.02449 5.0245 -0.85062 -1.21579 1.43144e+06 
108 -0.03925 8.83416e-05 1846.9 273.122 5.02449 5.02454 -0.824545 -1.18415 1.43141e+06 
109 -0.03915 8.83422e-05 1846.9 273.123 5.02454 5.02444 -0.843253 -1.21517 1.4314e+06 
110 -0.03905 8.83417e-05 1846.9 273.12 5.02445 5.02434 -0.872325 -1.22408 1.43159e+06 
111 -0.03895 8.83423e-05 1846.9 273.121 5.02452 5.0244 -0.885428 -1.23122 1.43168e+06 
112 -0.03885 8.83417e-05 1846.9 273.125 5.02455 5.02443 -0.929064 -1.31055 1.43184e+06 
113 -0.03875 8.83426e-05 1846.9 273.122 5.02454 5.0244 -0.937954 -1.29042 1.43191e+06 
114 -0.03865 8.83419e-05 1846.9 273.124 5.02454 5.02447 -0.952505 -1.32142 1.43199e+06 
115 -0.03855 8.83411e-05 1846.9 273.125 5.02451 5.02443 -1.00687 -1.40017 1.43231e+06 
116 -0.03845 8.8343e-05 1846.9 273.124 5.0246 5.02451 -0.976931 -1.38468 1.43218e+06 
117 -0.03835 8.83418e-05 1846.9 273.124 5.02453 5.02451 -0.991691 -1.41265 1.43233e+06 
118 -0.03825 8.83424e-05 1846.9 273.125 5.0246 5.02458 -0.992063 -1.46119 1.43239e+06 
119 -0.03815 8.83418e-05 1846.9 273.124 5.02453 5.02447 -1.00423 -1.47764 1.43253e+06 
120 -0.03805 8.83423e-05 1846.9 273.127 5.02461 5.02462 -1.0667 -1.58275 1.43277e+06 
121 -0.03795 8.83428e-05 1846.9 273.124 5.0246 5.02471 -1.08582 -1.60067 1.43283e+06 
122 -0.03785 8.83414e-05 1846.89 273.125 5.02454 5.02461 -1.08117 -1.59957 1.43291e+06 
123 -0.03775 8.83424e-05 1846.9 273.127 5.02462 5.0247 -1.14218 -1.64837 1.43312e+06 
124 -0.03765 8.83416e-05 1846.9 273.126 5.02456 5.02467 -1.13238 -1.65439 1.43316e+06 
125 -0.03755 8.83425e-05 1846.9 273.126 5.02461 5.02476 -1.12225 -1.68301 1.43327e+06 
134 -0.03665 8.83422e-05 1846.9 273.134 5.02473 5.02508 -1.37407 -2.03777 1.43501e+06 
129 -0.03715 8.83424e-05 1846.9 273.126 5.02461 5.02487 -1.08592 -1.65133 1.43355e+06 
130 -0.03705 8.8342e-05 1846.9 273.127 5.0246 5.02493 -1.12833 -1.70694 1.43377e+06 
131 -0.03695 8.83424e-05 1846.9 273.13 5.02468 5.02502 -1.18832 -1.79196 1.43411e+06 
132 -0.03685 8.8343e-05 1846.89 273.13 5.02471 5.02505 -1.21229 -1.83034 1.43426e+06 
133 -0.03675 8.83424e-05 1846.89 273.13 5.02467 5.02506 -1.33578 -1.96734 1.43473e+06 
135 -0.03655 8.83427e-05 1846.89 273.132 5.02473 5.02519 -1.42548 -2.05035 1.43518e+06 
136 -0.03645 8.83421e-05 1846.89 273.132 5.0247 5.02502 -1.39751 -2.12861 1.43525e+06 
137 -0.03635 8.83428e-05 1846.89 273.134 5.02478 5.0252 -1.42999 -2.14629 1.43534e+06 
138 -0.03625 8.83425e-05 1846.89 273.133 5.02473 5.02515 -1.44637 -2.16144 1.43545e+06 
139 -0.03615 8.83428e-05 1846.89 273.134 5.02478 5.02517 -1.49098 -2.20878 1.43574e+06 
140 -0.03605 8.83423e-05 1846.89 273.136 5.02479 5.02527 -1.58127 -2.32667 1.43605e+06 
141 -0.03595 8.8343e-05 1846.89 273.138 5.02486 5.0253 -1.61777 -2.36056 1.43631e+06 
142 -0.03585 8.83419e-05 1846.89 273.136 5.02477 5.02516 -1.58762 -2.32666 1.43636e+06 
143 -0.03575 8.83431e-05 1846.89 273.136 5.02482 5.02527 -1.6627 -2.39123 1.43654e+06 
144 -0.03565 8.83425e-05 1846.89 273.141 5.02488 5.02524 -1.74615 -2.48073 1.43709e+06 
145 -0.03555 8.83427e-05 1846.89 273.14 5.02488 5.02533 -1.74571 -2.56071 1.43701e+06 
146 -0.03545 8.83419e-05 1846.89 273.139 5.02481 5.02531 -1.86621 -2.71076 1.43761e+06 
147 -0.03535 8.83428e-05 1846.89 273.144 5.02496 5.02557 -1.95187 -2.81454 1.43814e+06 
148 -0.03525 8.83425e-05 1846.89 273.143 5.02493 5.02551 -1.93759 -2.79435 1.43809e+06 
149 -0.03515 8.83423e-05 1846.89 273.145 5.02495 5.02555 -1.99807 -2.86725 1.43835e+06 
150 -0.03505 8.83433e-05 1846.89 273.145 5.025 5.02556 -2.08666 -2.98661 1.4389e+06 
126 -0.03745 8.8343e-05 1846.9 273.129 5.02469 5.02488 -1.15244 -1.73072 1.43351e+06 
127 -0.03735 8.83417e-05 1846.9 273.126 5.02456 5.02476 -1.11725 -1.68189 1.43343e+06 
128 -0.03725 8.83419e-05 1846.9 273.128 5.02462 5.02484 -1.15927 -1.73049 1.43369e+06 
167 -0.03335 8.83434e-05 1846.89 273.169 5.02545 5.02649 -3.29485 -4.92333 1.44574e+06 
161 -0.03395 8.83425e-05 1846.89 273.16 5.02523 5.02605 -2.66421 -3.93103 1.44243e+06 
162 -0.03385 8.83436e-05 1846.89 273.157 5.02525 5.02609 -2.68962 -4.04933 1.44267e+06 
163 -0.03375 8.83422e-05 1846.89 273.16 5.02522 5.02613 -2.82295 -4.239 1.44337e+06 
164 -0.03365 8.83429e-05 1846.89 273.163 5.02532 5.02626 -2.88338 -4.36885 1.44371e+06 
165 -0.03355 8.83427e-05 1846.89 273.165 5.02534 5.02636 -3.0469 -4.58219 1.44437e+06 
166 -0.03345 8.83426e-05 1846.89 273.17 5.02542 5.02643 -3.19605 -4.77124 1.44531e+06 
168 -0.03325 8.83431e-05 1846.89 273.172 5.02549 5.02653 -3.29686 -4.88686 1.44597e+06 
169 -0.03315 8.83424e-05 1846.88 273.172 5.02546 5.02648 -3.45545 -5.09899 1.44667e+06 
170 -0.03305 8.83433e-05 1846.88 273.176 5.02557 5.02665 -3.48209 -5.19046 1.44705e+06 
171 -0.03295 8.83429e-05 1846.89 273.175 5.02554 5.0266 -3.52116 -5.28824 1.44727e+06 
172 -0.03285 8.83429e-05 1846.88 273.178 5.02558 5.02678 -3.66325 -5.51149 1.44812e+06 
173 -0.03275 8.83431e-05 1846.89 273.182 5.02567 5.02683 -3.85759 -5.76318 1.44924e+06 
174 -0.03265 8.83428e-05 1846.88 273.18 5.02563 5.02687 -3.76043 -5.66751 1.44882e+06 
175 -0.03255 8.83438e-05 1846.88 273.184 5.02575 5.027 -3.85154 -5.85083 1.44943e+06 
151 -0.03495 8.83429e-05 1846.89 273.148 5.02504 5.02567 -2.15899 -3.09093 1.43915e+06 
152 -0.03485 8.83422e-05 1846.89 273.149 5.02501 5.02565 -2.22655 -3.21137 1.4396e+06 
153 -0.03475 8.83435e-05 1846.89 273.149 5.02508 5.02568 -2.22939 -3.24766 1.43976e+06 
154 -0.03465 8.8342e-05 1846.89 273.149 5.025 5.02552 -2.2121 -3.2334 1.43975e+06 
155 -0.03455 8.83434e-05 1846.89 273.149 5.02509 5.0257 -2.28973 -3.36362 1.44016e+06 
156 -0.03445 8.83424e-05 1846.89 273.15 5.02505 5.02567 -2.25245 -3.33272 1.44015e+06 
157 -0.03435 8.83431e-05 1846.89 273.151 5.02511 5.02579 -2.35645 -3.49605 1.44075e+06 
158 -0.03425 8.83428e-05 1846.89 273.15 5.02507 5.02582 -2.42741 -3.56548 1.4411e+06 
159 -0.03415 8.83426e-05 1846.89 273.157 5.02518 5.02582 -2.44094 -3.62896 1.44128e+06 
160 -0.03405 8.83428e-05 1846.89 273.156 5.02518 5.02586 -2.52427 -3.72585 1.4417e+06 
200 -0.03005 8.83438e-05 1846.87 273.269 5.02733 5.02952 -8.15962 -11.9245 1.47337e+06 
193 -0.03075 8.83433e-05 1846.87 273.239 5.02674 5.02869 -6.73619 -9.97113 1.46533e+06 
194 -0.03065 8.83433e-05 1846.87 273.241 5.02677 5.02868 -6.81801 -10.0929 1.46585e+06 
195 -0.03055 8.83436e-05 1846.87 273.249 5.02694 5.02909 -7.13887 -10.603 1.4676e+06 
196 -0.03045 8.83435e-05 1846.87 273.249 5.02693 5.02896 -7.18093 -10.5973 1.46797e+06 
197 -0.03035 8.83436e-05 1846.87 273.256 5.02706 5.02919 -7.51337 -11.0495 1.46973e+06 
198 -0.03025 8.83438e-05 1846.87 273.258 5.02712 5.02927 -7.61383 -11.2592 1.47054e+06 
199 -0.03015 8.83433e-05 1846.87 273.264 5.02719 5.02946 -7.95257 -11.686 1.47223e+06 
176 -0.03245 8.83419e-05 1846.88 273.184 5.02565 5.02689 -3.92289 -5.89704 1.44983e+06 
177 -0.03235 8.83437e-05 1846.88 273.188 5.02583 5.02708 -4.22034 -6.29388 1.45133e+06 
178 -0.03225 8.83435e-05 1846.88 273.19 5.02585 5.02712 -4.28054 -6.40508 1.45169e+06 
179 -0.03215 8.83428e-05 1846.88 273.194 5.02589 5.02711 -4.338 -6.51463 1.45206e+06 
180 -0.03205 8.83435e-05 1846.88 273.196 5.02596 5.02727 -4.61682 -6.875 1.45347e+06 
181 -0.03195 8.8343e-05 1846.88 273.201 5.02602 5.0274 -4.71509 -7.00348 1.45408e+06 
182 -0.03185 8.8343e-05 1846.88 273.201 5.02602 5.02742 -4.7955 -7.15945 1.45465e+06 
183 -0.03175 8.83433e-05 1846.88 273.202 5.02605 5.02739 -4.76813 -7.1357 1.4547e+06 
184 -0.03165 8.83428e-05 1846.88 273.204 5.02607 5.02749 -5.02009 -7.46099 1.45604e+06 
185 -0.03155 8.83434e-05 1846.88 273.208 5.02616 5.02764 -5.12495 -7.68484 1.45665e+06 
186 -0.03145 8.83427e-05 1846.88 273.209 5.02615 5.02772 -5.34089 -7.98018 1.45771e+06 
187 -0.03135 8.83434e-05 1846.88 273.216 5.02632 5.02789 -5.52375 -8.27008 1.45867e+06 
188 -0.03125 8.83434e-05 1846.88 273.219 5.02637 5.02803 -5.73713 -8.53788 1.45972e+06 
189 -0.03115 8.8343e-05 1846.87 273.223 5.02643 5.02816 -5.96905 -8.85755 1.46107e+06 
190 -0.03105 8.8343e-05 1846.87 273.226 5.02648 5.02823 -6.02072 -8.97434 1.46149e+06 
191 -0.03095 8.83435e-05 1846.87 273.229 5.02657 5.02834 -6.2337 -9.27554 1.46262e+06 
192 -0.03085 8.83437e-05 1846.87 273.236 5.0267 5.02859 -6.47565 -9.59311 1.46391e+06 
201 -0.02995 8.83439e-05 1846.87 273.27 5.02734 5.02966 -8.2548 -12.184 1.47426e+06 
225 -0.02755 8.83453e-05 1846.83 273.449 5.03071 5.03556 -17.1341 -25.2671 1.52356e+06 
202 -0.02985 8.83439e-05 1846.86 273.277 5.02747 5.02988 -8.57577 -12.6102 1.47581e+06 
203 -0.02975 8.83436e-05 1846.86 273.284 5.02758 5.03009 -8.88361 -13.0953 1.47766e+06 
204 -0.02965 8.83445e-05 1846.86 273.283 5.02761 5.03022 -9.02952 -13.2777 1.47859e+06 
205 -0.02955 8.83445e-05 1846.86 273.294 5.02782 5.03043 -9.28937 -13.6971 1.48016e+06 
206 -0.02945 8.83442e-05 1846.86 273.297 5.02785 5.03063 -9.58099 -14.157 1.48186e+06 
207 -0.02935 8.83437e-05 1846.86 273.301 5.0279 5.03069 -9.85717 -14.5539 1.48341e+06 
208 -0.02925 8.83451e-05 1846.86 273.306 5.02807 5.03094 -10.1621 -15.032 1.48515e+06 
209 -0.02915 8.8344e-05 1846.86 273.32 5.02826 5.0313 -10.6212 -15.6925 1.48754e+06 
210 -0.02905 8.83445e-05 1846.86 273.324 5.02836 5.03153 -10.8841 -16.0483 1.48913e+06 
211 -0.02895 8.83446e-05 1846.85 273.331 5.0285 5.03179 -11.248 -16.6642 1.49126e+06 
212 -0.02885 8.83444e-05 1846.85 273.34 5.02865 5.03206 -11.767 -17.2493 1.49353e+06 
213 -0.02875 8.83449e-05 1846.85 273.343 5.02875 5.03222 -11.8492 -17.544 1.49451e+06 
214 -0.02865 8.83446e-05 1846.85 273.351 5.02887 5.03241 -12.3011 -18.1352 1.49694e+06 
215 -0.02855 8.83444e-05 1846.85 273.36 5.02903 5.03281 -12.7635 -18.8016 1.49949e+06 
216 -0.02845 8.83453e-05 1846.85 273.362 5.0291 5.03287 -12.8665 -19.031 1.50031e+06 
217 -0.02835 8.83444e-05 1846.85 273.37 5.02921 5.03308 -13.2707 -19.5965 1.50261e+06 
218 -0.02825 8.83447e-05 1846.84 273.378 5.02937 5.03335 -13.6588 -20.1925 1.50476e+06 
219 -0.02815 8.83449e-05 1846.84 273.39 5.02961 5.0337 -14.3009 -21.0633 1.50781e+06 
220 -0.02805 8.83452e-05 1846.84 273.394 5.02969 5.03377 -14.4384 -21.3041 1.50917e+06 
221 -0.02795 8.83454e-05 1846.84 273.405 5.0299 5.03421 -15.0193 -22.1602 1.51206e+06 
222 -0.02785 8.83451e-05 1846.84 273.415 5.03008 5.03447 -15.4738 -22.8951 1.51485e+06 
223 -0.02775 8.8345e-05 1846.83 273.426 5.03027 5.03491 -16.0203 -23.7864 1.51771e+06 
224 -0.02765 8.83453e-05 1846.83 273.437 5.03049 5.03529 -16.6145 -24.5506 1.5206e+06 
234 -0.02665 8.83464e-05 1846.81 273.563 5.03288 5.03938 -22.8333 -33.7599 1.55507e+06 
226 -0.02745 8.8345e-05 1846.83 273.459 5.03088 5.03596 -17.684 -26.0683 1.52682e+06 
227 -0.02735 8.83462e-05 1846.83 273.465 5.03107 5.03629 -18.0943 -26.8512 1.52926e+06 
228 -0.02725 8.83454e-05 1846.82 273.478 5.03125 5.03652 -18.5611 -27.4935 1.53191e+06 
229 -0.02715 8.83455e-05 1846.82 273.487 5.03143 5.03683 -19.2258 -28.5203 1.53579e+06 
230 -0.02705 8.83462e-05 1846.82 273.504 5.03177 5.03737 -19.8607 -29.3706 1.53895e+06 
231 -0.02695 8.83455e-05 1846.82 273.523 5.03209 5.03789 -20.8316 -30.7335 1.54396e+06 
232 -0.02685 8.83467e-05 1846.81 273.533 5.03233 5.03828 -21.3472 -31.4399 1.54677e+06 
233 -0.02675 8.8346e-05 1846.81 273.547 5.03255 5.03872 -22.0597 -32.4638 1.55071e+06 
235 -0.02655 8.83468e-05 1846.81 273.577 5.03316 5.03973 -23.6926 -34.8342 1.55964e+06 
236 -0.02645 8.83468e-05 1846.8 273.593 5.03344 5.04013 -24.1975 -35.622 1.56251e+06 
237 -0.02635 8.83478e-05 1846.8 273.608 5.03379 5.04077 -25.3137 -37.1075 1.56818e+06 
238 -0.02625 8.83468e-05 1846.79 273.625 5.03404 5.04124 -25.8897 -38.1569 1.57195e+06 
239 -0.02615 8.83474e-05 1846.79 273.636 5.03427 5.04167 -26.4623 -39.16 1.57559e+06 
240 -0.02605 8.83479e-05 1846.79 273.651 5.03458 5.04216 -27.232 -40.2795 1.57988e+06 
241 -0.02595 8.83476e-05 1846.79 273.669 5.03489 5.04274 -28.2557 -41.7266 1.58527e+06 
242 -0.02585 8.83476e-05 1846.78 273.687 5.03522 5.04327 -28.9288 -42.8063 1.58947e+06 
243 -0.02575 8.83476e-05 1846.78 273.708 5.03561 5.044 -30.1402 -44.4485 1.59546e+06 
244 -0.02565 8.83484e-05 1846.77 273.73 5.03606 5.04475 -31.1952 -45.8828 1.60136e+06 
245 -0.02555 8.83481e-05 1846.77 273.756 5.03653 5.04548 -32.4588 -47.6019 1.60779e+06 
246 -0.02545 8.83486e-05 1846.76 273.763 5.03668 5.04576 -32.8065 -48.2994 1.61087e+06 
247 -0.02535 8.83486e-05 1846.76 273.785 5.03708 5.0465 -34.0685 -50.1116 1.61743e+06 
248 -0.02525 8.83486e-05 1846.75 273.815 5.03764 5.0474 -35.4469 -51.9591 1.62461e+06 
249 -0.02515 8.83497e-05 1846.76 273.828 5.03795 5.04792 -36.0854 -53.2294 1.62895e+06 
250 -0.02505 8.83484e-05 1846.75 273.848 5.03824 5.04858 -37.2626 -55.0198 1.63554e+06 
267 -0.02335 8.83547e-05 1846.64 274.399 5.04873 5.06659 -64.5892 -95.4856 1.78451e+06 
257 -0.02435 8.83509e-05 1846.72 274.035 5.04181 5.05442 -46.4278 -68.6333 1.6858e+06 
258 -0.02425 8.8352e-05 1846.71 274.07 5.04251 5.05568 -48.1939 -71.2462 1.69533e+06 
259 -0.02415 8.83511e-05 1846.7 274.101 5.04304 5.0566 -49.8256 -73.5689 1.70377e+06 
260 -0.02405 8.83519e-05 1846.69 274.137 5.04375 5.05777 -51.5628 -76.0371 1.71339e+06 
261 -0.02395 8.83527e-05 1846.69 274.168 5.04436 5.05884 -53.0546 -78.3053 1.72158e+06 
262 -0.02385 8.83518e-05 1846.68 274.209 5.04507 5.0602 -55.1447 -81.4462 1.733e+06 
263 -0.02375 8.83537e-05 1846.67 274.244 5.04582 5.06142 -56.8967 -83.996 1.74255e+06 
264 -0.02365 8.83522e-05 1846.66 274.285 5.04649 5.06268 -58.963 -87.0036 1.75332e+06 
265 -0.02355 8.83541e-05 1846.65 274.327 5.04738 5.06429 -60.993 -90.0419 1.76392e+06 
266 -0.02345 8.83535e-05 1846.65 274.361 5.04795 5.06533 -62.592 -92.7122 1.77382e+06 
268 -0.02325 8.83543e-05 1846.63 274.441 5.04948 5.06777 -66.711 -98.4457 1.79619e+06 
269 -0.02315 8.83558e-05 1846.62 274.485 5.05038 5.06927 -68.964 -101.787 1.80856e+06 
270 -0.02305 8.83553e-05 1846.61 274.536 5.05128 5.07102 -71.4481 -105.565 1.82166e+06 
271 -0.02295 8.83558e-05 1846.6 274.584 5.05219 5.07263 -73.7299 -108.951 1.83399e+06 
272 -0.02285 8.8357e-05 1846.59 274.626 5.05303 5.07401 -75.8919 -112.192 1.84624e+06 
273 -0.02275 8.83573e-05 1846.59 274.673 5.05392 5.07565 -78.4517 -116.138 1.86034e+06 
274 -0.02265 8.83568e-05 1846.57 274.727 5.05489 5.0772 -80.8195 -119.52 1.87312e+06 
275 -0.02255 8.83584e-05 1846.57 274.776 5.05588 5.07899 -83.4851 -123.573 1.88814e+06 
251 -0.02495 8.83491e-05 1846.74 273.872 5.03872 5.04929 -38.4135 -56.6721 1.64156e+06 
252 -0.02485 8.83505e-05 1846.74 273.898 5.03927 5.05013 -39.5635 -58.2357 1.64791e+06 
253 -0.02475 8.83501e-05 1846.74 273.924 5.03973 5.05095 -40.9841 -60.3261 1.65576e+06 
254 -0.02465 8.83499e-05 1846.73 273.958 5.04035 5.05208 -42.5052 -62.7297 1.66349e+06 
255 -0.02455 8.83504e-05 1846.72 273.986 5.04089 5.05298 -44.0494 -64.8708 1.67173e+06 
256 -0.02445 8.83506e-05 1846.72 274.012 5.04137 5.05366 -45.2815 -66.7685 1.67934e+06 
300 -0.02005 8.83786e-05 1846.12 276.951 5.09707 5.1503 -191.581 -283.932 2.47489e+06 
289 -0.02115 8.83671e-05 1846.37 275.762 5.07451 5.1111 -132.459 -196.032 2.15403e+06 
290 -0.02105 8.83697e-05 1846.34 275.866 5.07657 5.11476 -137.708 -203.825 2.18219e+06 
291 -0.02095 8.83684e-05 1846.33 275.95 5.07806 5.11737 -141.9 -210.063 2.20502e+06 
292 -0.02085 8.83711e-05 1846.3 276.064 5.08031 5.1212 -147.53 -218.311 2.23464e+06 
293 -0.02075 8.83715e-05 1846.28 276.165 5.08219 5.12454 -152.596 -225.818 2.26154e+06 
294 -0.02065 8.83728e-05 1846.26 276.258 5.08397 5.12742 -157.107 -232.502 2.28708e+06 
295 -0.02055 8.83731e-05 1846.24 276.364 5.08595 5.13117 -162.58 -241.147 2.31791e+06 
296 -0.02045 8.83742e-05 1846.22 276.474 5.08802 5.13458 -167.956 -248.7 2.34602e+06 
297 -0.02035 8.83763e-05 1846.2 276.586 5.09021 5.13821 -173.482 -257.093 2.37649e+06 
298 -0.02025 8.83755e-05 1846.18 276.695 5.09217 5.14178 -178.89 -265.108 2.4062e+06 
299 -0.02015 8.83782e-05 1846.15 276.817 5.09457 5.1458 -185.11 -274.142 2.43986e+06 
276 -0.02245 8.83584e-05 1846.55 274.835 5.05696 5.0809 -86.4016 -127.722 1.90334e+06 
277 -0.02235 8.83592e-05 1846.54 274.902 5.05825 5.08298 -89.5745 -132.417 1.92003e+06 
278 -0.02225 8.83602e-05 1846.53 274.956 5.05929 5.08471 -92.5442 -136.573 1.93682e+06 
279 -0.02215 8.83597e-05 1846.52 275.016 5.06036 5.08666 -95.2098 -140.87 1.95163e+06 
280 -0.02205 8.83612e-05 1846.51 275.082 5.06166 5.08893 -98.6247 -146.056 1.9697e+06 
281 -0.02195 8.83615e-05 1846.49 275.162 5.06316 5.09146 -102.626 -151.586 1.99118e+06 
282 -0.02185 8.83619e-05 1846.47 275.229 5.06441 5.09371 -105.995 -156.631 2.00927e+06 
283 -0.02175 8.83632e-05 1846.46 275.291 5.06562 5.09592 -109.008 -161.569 2.02658e+06 
284 -0.02165 8.83629e-05 1846.44 275.373 5.06711 5.09854 -113.102 -167.444 2.04825e+06 
285 -0.02155 8.8365e-05 1846.43 275.439 5.06845 5.10071 -116.434 -172.376 2.06682e+06 
286 -0.02145 8.83643e-05 1846.41 275.514 5.06979 5.10299 -120.192 -177.868 2.08778e+06 
287 -0.02135 8.83663e-05 1846.4 275.588 5.07127 5.10553 -123.925 -183.491 2.10796e+06 
288 -0.02125 8.83666e-05 1846.38 275.674 5.07286 5.10824 -128.064 -189.682 2.13114e+06 
301 -0.01995 8.83808e-05 1846.09 277.099 5.09992 5.15549 -199.205 -295.195 2.51427e+06 
321 -0.01795 8.84182e-05 1845.31 280.943 5.17285 5.2832 -390.68 -579.608 3.54665e+06 
322 -0.01785 8.84211e-05 1845.25 281.246 5.1786 5.29299 -405.455 -600.901 3.62485e+06 
323 -0.01775 8.84239e-05 1845.19 281.519 5.18378 5.3025 -419.055 -621.781 3.69753e+06 
324 -0.01765 8.84265e-05 1845.12 281.844 5.18993 5.31331 -435.413 -645.745 3.78357e+06 
325 -0.01755 8.84295e-05 1845.07 282.132 5.19541 5.32256 -449.756 -666.522 3.86171e+06 
302 -0.01985 8.83818e-05 1846.07 277.229 5.10235 5.15962 -205.561 -304.719 2.54991e+06 
303 -0.01975 8.83828e-05 1846.04 277.379 5.10518 5.16434 -213.112 -315.238 2.58942e+06 
304 -0.01965 8.83848e-05 1846.01 277.533 5.10813 5.16932 -220.67 -326.209 2.63009e+06 
305 -0.01955 8.83862e-05 1845.98 277.675 5.11082 5.17433 -227.857 -337.375 2.66911e+06 
306 -0.01945 8.8387e-05 1845.95 277.835 5.11381 5.17958 -235.74 -349.085 2.71216e+06 
307 -0.01935 8.83893e-05 1845.91 277.986 5.11673 5.18452 -243.127 -360.082 2.75217e+06 
308 -0.01925 8.83904e-05 1845.88 278.15 5.11981 5.19015 -251.481 -372.779 2.79799e+06 
309 -0.01915 8.83928e-05 1845.84 278.333 5.12331 5.19637 -260.477 -386.18 2.84543e+06 
310 -0.01905 8.8394e-05 1845.81 278.485 5.12618 5.20162 -268.31 -398.454 2.8896e+06 
311 -0.01895 8.83964e-05 1845.77 278.669 5.12971 5.20764 -277.143 -411.533 2.93708e+06 
312 -0.01885 8.83982e-05 1845.73 278.877 5.13365 5.21466 -287.684 -426.916 2.99257e+06 
313 -0.01875 8.83994e-05 1845.69 279.087 5.13758 5.22112 -298.192 -441.762 3.04877e+06 
314 -0.01865 8.84022e-05 1845.65 279.265 5.14103 5.22729 -306.91 -455.276 3.09711e+06 
315 -0.01855 8.8404e-05 1845.61 279.493 5.14532 5.23504 -318.295 -472.359 3.15768e+06 
316 -0.01845 8.84055e-05 1845.56 279.71 5.14941 5.24213 -329.091 -488.487 3.21617e+06 
317 -0.01835 8.84082e-05 1845.52 279.928 5.15358 5.24935 -340.005 -504.478 3.27578e+06 
318 -0.01825 8.8411e-05 1845.47 280.162 5.15806 5.25723 -351.588 -521.777 3.33701e+06 
319 -0.01815 8.84129e-05 1845.42 280.421 5.16292 5.26572 -364.495 -541.044 3.40751e+06 
320 -0.01805 8.84155e-05 1845.36 280.681 5.16787 5.2745 -377.371 -559.953 3.47542e+06 
334 -0.01665 8.84615e-05 1844.41 285.35 5.25656 5.4306 -609.871 -906.971 4.7252e+06 
326 -0.01745 8.84333e-05 1845.01 282.418 5.20089 5.33211 -463.927 -688.072 3.93954e+06 
327 -0.01735 8.84351e-05 1844.94 282.743 5.20697 5.34335 -479.985 -712.939 4.02655e+06 
328 -0.01725 8.84395e-05 1844.87 283.08 5.21346 5.35471 -496.882 -738.036 4.11681e+06 
329 -0.01715 8.84421e-05 1844.79 283.453 5.22047 5.36715 -515.377 -765.364 4.2146e+06 
330 -0.01705 8.84467e-05 1844.72 283.817 5.22745 5.3793 -533.531 -792.213 4.31109e+06 
331 -0.01695 8.84505e-05 1844.65 284.165 5.23408 5.39109 -550.707 -818.494 4.40548e+06 
332 -0.01685 8.84538e-05 1844.57 284.564 5.24163 5.40434 -570.557 -847.786 4.51067e+06 
333 -0.01675 8.84567e-05 1844.48 284.956 5.24903 5.41734 -590.075 -876.937 4.61666e+06 
335 -0.01655 8.84651e-05 1844.31 285.811 5.26527 5.4458 -632.532 -940.033 4.84327e+06 
336 -0.01645 8.84707e-05 1844.22 286.277 5.27419 5.46154 -655.935 -974.79 4.9686e+06 
337 -0.01635 8.84756e-05 1844.12 286.748 5.28317 5.47732 -679.139 -1009.49 5.09181e+06 
338 -0.01625 8.84793e-05 1844.02 287.218 5.29203 5.4929 -702.551 -1044.21 5.2178e+06 
339 -0.01615 8.84841e-05 1843.92 287.724 5.30165 5.50941 -727.717 -1080.78 5.35096e+06 
340 -0.01605 8.84899e-05 1843.81 288.258 5.31184 5.52763 -754.235 -1120.59 5.49221e+06 
341 -0.01595 8.84958e-05 1843.7 288.763 5.3215 5.54496 -779.377 -1159.04 5.62734e+06 