TITLE = "DSMC"
VARIABLES = "ID" "X" "rho" "v1" "Ttrans" "p" "p1" "q1" "mv1v1v1" "mvvv1v1"
ZONE T="Ma=2.8", I=1000, J=1, K=1, F=POINT
1 -0.06995 8.83428e-05 861.879 273.204 5.02607 5.02549 -0.588945 -1.06755 1428760.0
2 -0.06985 8.83432e-05 861.878 273.21 5.0262 5.02567 -0.624911 -1.11482 1428930.0
3 -0.06975 8.83424e-05 861.881 273.206 5.02608 5.02538 -0.571769 -0.976791 1428750.0
4 -0.06965 8.83427e-05 861.884 273.204 5.02606 5.02538 -0.520955 -0.935191 1428670.0
5 -0.06955 8.83419e-05 861.883 273.205 5.02604 5.0252 -0.519305 -0.923273 1428650.0
6 -0.06945 8.83425e-05 861.889 273.202 5.02601 5.02489 -0.453224 -0.703348 1428500.0
7 -0.06935 8.83423e-05 861.882 273.207 5.02609 5.02536 -0.559584 -0.987215 1428840.0
8 -0.06925 8.83421e-05 861.883 273.202 5.02599 5.02528 -0.420768 -0.868185 1428630.0
9 -0.06915 8.83421e-05 861.887 273.199 5.02592 5.02506 -0.308199 -0.695776 1428420.0
10 -0.06905 8.83416e-05 861.885 273.207 5.02604 5.02522 -0.484158 -0.944734 1428770.0
11 -0.06895 8.83423e-05 861.886 273.201 5.02597 5.02523 -0.402752 -0.877519 1428670.0
12 -0.06885 8.8342e-05 861.881 273.209 5.0261 5.02545 -0.54354 -0.989417 1428950.0
13 -0.06875 8.83418e-05 861.888 273.201 5.02595 5.02501 -0.379498 -0.68616 1428550.0
14 -0.06865 8.83413e-05 861.891 273.2 5.0259 5.02491 -0.271562 -0.508866 1428430.0
15 -0.06855 8.83422e-05 861.887 273.198 5.02592 5.02501 -0.350742 -0.663592 1428550.0
16 -0.06845 8.83417e-05 861.892 273.196 5.02585 5.02476 -0.257169 -0.454686 1428370.0
17 -0.06835 8.83427e-05 861.885 273.205 5.02607 5.02534 -0.461019 -0.866097 1428880.0
18 -0.06825 8.83424e-05 861.877 273.211 5.02616 5.02573 -0.523099 -0.983423 1429120.0
19 -0.06815 8.8343e-05 861.882 273.207 5.02613 5.02554 -0.487971 -0.894622 1429000.0
20 -0.06805 8.83417e-05 861.887 273.2 5.02592 5.02508 -0.336146 -0.606485 1428650.0
21 -0.06795 8.83431e-05 861.882 273.202 5.02604 5.02522 -0.368551 -0.615199 1428720.0
22 -0.06785 8.83424e-05 861.89 273.199 5.02595 5.02501 -0.285243 -0.482186 1428600.0
23 -0.06775 8.83422e-05 861.886 273.197 5.02591 5.0251 -0.260387 -0.525581 1428590.0
24 -0.06765 8.83427e-05 861.884 273.201 5.026 5.02533 -0.2895 -0.546374 1428720.0
25 -0.06755 8.83429e-05 861.883 273.202 5.02604 5.0254 -0.321125 -0.574489 1428770.0
26 -0.06745 8.8343e-05 861.881 273.205 5.02609 5.02557 -0.317247 -0.546113 1428840.0
27 -0.06735 8.83435e-05 861.878 273.207 5.02616 5.02567 -0.418975 -0.654617 1429010.0
28 -0.06725 8.83431e-05 861.88 273.205 5.02609 5.02551 -0.366628 -0.553234 1428880.0
29 -0.06715 8.83438e-05 861.878 273.211 5.02624 5.02578 -0.466288 -0.69061 1429150.0
30 -0.06705 8.83432e-05 861.875 273.208 5.02615 5.02573 -0.435461 -0.672676 1429090.0
31 -0.06695 8.83438e-05 861.874 273.215 5.02633 5.02608 -0.502389 -0.827101 1429370.0
32 -0.06685 8.83442e-05 861.872 273.211 5.02626 5.02599 -0.511904 -0.79174 1429430.0
33 -0.06675 8.83437e-05 861.871 273.215 5.02631 5.02607 -0.58239 -0.951269 1429520.0
34 -0.06665 8.83433e-05 861.879 273.208 5.02616 5.02551 -0.457699 -0.639437 1429140.0
35 -0.06655 8.83437e-05 861.877 273.211 5.02624 5.0258 -0.559747 -0.849972 1429420.0
36 -0.06645 8.83421e-05 861.886 273.202 5.02598 5.0251 -0.357066 -0.331269 1428820.0
37 -0.06635 8.83427e-05 861.884 273.205 5.02607 5.02529 -0.447057 -0.494649 1429010.0
38 -0.06625 8.83433e-05 861.879 273.214 5.02628 5.02567 -0.645893 -0.828434 1429470.0
39 -0.06615 8.83429e-05 861.882 273.211 5.0262 5.02541 -0.580629 -0.653783 1429310.0
40 -0.06605 8.83429e-05 861.877 273.216 5.02628 5.02571 -0.646981 -0.839386 1429470.0
41 -0.06595 8.83423e-05 861.883 273.207 5.02609 5.02543 -0.510767 -0.633157 1429210.0
42 -0.06585 8.83427e-05 861.88 273.21 5.02617 5.02567 -0.528877 -0.704191 1429310.0
43 -0.06575 8.83427e-05 861.877 273.206 5.02609 5.02568 -0.502825 -0.683937 1429280.0
44 -0.06565 8.83423e-05 861.881 273.2 5.02596 5.02526 -0.336223 -0.310448 1428920.0
45 -0.06555 8.83435e-05 861.877 273.208 5.02617 5.02584 -0.464839 -0.673913 1429320.0
46 -0.06545 8.83432e-05 861.874 273.209 5.02619 5.02604 -0.549086 -0.822743 1429490.0
47 -0.06535 8.8343e-05 861.871 273.209 5.02616 5.02605 -0.532056 -0.797205 1429530.0
48 -0.06525 8.83439e-05 861.873 273.207 5.02617 5.02609 -0.485214 -0.719633 1429480.0
49 -0.06515 8.83436e-05 861.876 273.207 5.02617 5.02598 -0.474532 -0.625893 1429460.0
50 -0.06505 8.83433e-05 861.877 273.202 5.02606 5.02572 -0.390562 -0.487196 1429250.0
51 -0.06495 8.83432e-05 861.876 273.203 5.02607 5.02573 -0.395163 -0.487636 1429300.0
52 -0.06485 8.83429e-05 861.883 273.197 5.02593 5.02538 -0.301597 -0.287549 1429060.0
53 -0.06475 8.8343e-05 861.876 273.2 5.026 5.02563 -0.357964 -0.448715 1429240.0
54 -0.06465 8.83428e-05 861.884 273.195 5.02589 5.02531 -0.225674 -0.245255 1428930.0
55 -0.06455 8.83427e-05 861.882 273.193 5.02586 5.02529 -0.215014 -0.311255 1428960.0
56 -0.06445 8.83429e-05 861.889 273.185 5.02572 5.02496 -0.0504832 -0.00819214 1428550.0
57 -0.06435 8.83417e-05 861.893 273.183 5.02561 5.02454 0.0621701 0.276607 1428350.0
58 -0.06425 8.83405e-05 861.9 273.171 5.02532 5.02396 0.204419 0.611715 1427840.0
59 -0.06415 8.83421e-05 861.888 273.187 5.0257 5.02484 -0.0618509 0.101798 1428550.0
60 -0.06405 8.83428e-05 861.884 273.19 5.0258 5.02509 -0.120495 -0.0961564 1428800.0
61 -0.06395 8.83423e-05 861.88 273.201 5.02598 5.02563 -0.328348 -0.416101 1429280.0
62 -0.06385 8.83431e-05 861.88 273.2 5.02601 5.02571 -0.33055 -0.388249 1429260.0
63 -0.06375 8.83435e-05 861.866 273.21 5.02621 5.02647 -0.538608 -0.890581 1429840.0
64 -0.06365 8.83431e-05 861.879 273.2 5.026 5.02577 -0.28171 -0.335108 1429230.0
65 -0.06355 8.83437e-05 861.868 273.209 5.0262 5.02633 -0.497838 -0.746231 1429740.0
66 -0.06345 8.83434e-05 861.872 273.206 5.02614 5.02621 -0.418935 -0.644415 1429580.0
67 -0.06335 8.83431e-05 861.874 273.2 5.02601 5.02588 -0.340897 -0.441392 1429340.0
68 -0.06325 8.83441e-05 861.872 273.205 5.02615 5.02611 -0.359812 -0.501719 1429500.0
69 -0.06315 8.83429e-05 861.877 273.198 5.02596 5.02583 -0.277793 -0.339708 1429290.0
70 -0.06305 8.83441e-05 861.867 273.202 5.02609 5.02626 -0.373752 -0.582977 1429550.0
71 -0.06295 8.83438e-05 861.869 273.206 5.02617 5.0266 -0.461971 -0.78653 1429860.0
72 -0.06285 8.83443e-05 861.87 273.202 5.02611 5.02634 -0.404984 -0.649039 1429670.0
73 -0.06275 8.83437e-05 861.87 273.201 5.02607 5.02626 -0.355973 -0.572232 1429600.0
74 -0.06265 8.83441e-05 861.868 273.209 5.02622 5.02649 -0.52292 -0.793002 1429930.0
75 -0.06255 8.83429e-05 861.876 273.195 5.0259 5.02588 -0.238209 -0.345836 1429300.0
76 -0.06245 8.83437e-05 861.87 273.2 5.02603 5.02609 -0.319413 -0.454349 1429500.0
77 -0.06235 8.83431e-05 861.877 273.193 5.02588 5.02566 -0.163279 -0.174017 1429170.0
78 -0.06225 8.83419e-05 861.887 273.182 5.02561 5.02514 0.0165891 0.126565 1428670.0
79 -0.06215 8.83433e-05 861.873 273.201 5.02603 5.02597 -0.352695 -0.460487 1429510.0
80 -0.06205 8.83428e-05 861.875 273.203 5.02605 5.02595 -0.382602 -0.487961 1429620.0
81 -0.06195 8.83437e-05 861.875 273.199 5.02602 5.02581 -0.342008 -0.405532 1429480.0
82 -0.06185 8.83433e-05 861.879 273.194 5.02592 5.02554 -0.246188 -0.216609 1429300.0
83 -0.06175 8.83422e-05 861.887 273.188 5.02574 5.02503 -0.0472946 0.109136 1428830.0
84 -0.06165 8.83436e-05 861.875 273.196 5.02597 5.0257 -0.260714 -0.278565 1429390.0
85 -0.06155 8.83431e-05 861.883 273.191 5.02585 5.02529 -0.144783 -0.089788 1429050.0
86 -0.06145 8.83418e-05 861.887 273.182 5.02561 5.0248 0.0263048 0.271284 1428630.0
87 -0.06135 8.83422e-05 861.888 273.186 5.0257 5.025 -0.0232743 0.0733013 1428750.0
88 -0.06125 8.83418e-05 861.889 273.182 5.0256 5.02481 0.0255381 0.202786 1428660.0
89 -0.06115 8.83412e-05 861.89 273.18 5.02554 5.02464 0.0505986 0.259981 1428570.0
90 -0.06105 8.83418e-05 861.888 273.187 5.0257 5.02504 -0.0457333 0.0672775 1428910.0
91 -0.06095 8.8342e-05 861.883 273.187 5.0257 5.02519 -0.108473 -0.128134 1429040.0
92 -0.06085 8.83415e-05 861.888 273.185 5.02564 5.02488 -0.0547664 0.0262706 1428910.0
93 -0.06075 8.83413e-05 861.889 273.184 5.02561 5.02485 -0.0350358 0.0914779 1428880.0
94 -0.06065 8.83418e-05 861.883 273.187 5.02569 5.02508 -0.102397 -0.0520884 1428970.0
95 -0.06055 8.83417e-05 861.889 273.183 5.02561 5.02484 0.00821608 0.0967378 1428750.0
96 -0.06045 8.83418e-05 861.887 273.184 5.02564 5.02488 -0.00808798 0.0793813 1428790.0
97 -0.06035 8.83425e-05 861.882 273.188 5.02576 5.02532 -0.127687 -0.15027 1429110.0
98 -0.06025 8.83423e-05 861.882 273.187 5.02572 5.02529 -0.0793346 -0.0609262 1429060.0
99 -0.06015 8.83423e-05 861.879 273.192 5.02582 5.02541 -0.182244 -0.252586 1429250.0
100 -0.06005 8.8343e-05 861.884 273.192 5.02585 5.02535 -0.187399 -0.276306 1429240.0
101 -0.05995 8.83423e-05 861.882 273.194 5.02585 5.02542 -0.217255 -0.346718 1429320.0
102 -0.05985 8.83428e-05 861.879 273.195 5.0259 5.02557 -0.212176 -0.386261 1429350.0
103 -0.05975 8.83426e-05 861.881 273.192 5.02583 5.02532 -0.181835 -0.245051 1429270.0
104 -0.05965 8.83412e-05 861.897 273.177 5.02548 5.02431 0.0775346 0.287322 1428530.0
105 -0.05955 8.8342e-05 861.892 273.18 5.02557 5.02458 0.030821 0.172902 1428730.0
106 -0.05945 8.83426e-05 861.886 273.186 5.02571 5.02519 -0.0385426 -0.0811567 1429110.0
107 -0.05935 8.83427e-05 861.883 273.186 5.02572 5.02529 -0.078159 -0.224679 1429170.0
108 -0.05925 8.83425e-05 861.887 273.179 5.02558 5.02487 0.082247 0.119957 1428830.0
109 -0.05915 8.83421e-05 861.887 273.182 5.02561 5.02497 0.0458493 0.0275581 1428910.0
110 -0.05905 8.83424e-05 861.88 273.187 5.02572 5.02535 -0.0317763 -0.189656 1429140.0
111 -0.05895 8.83435e-05 861.885 273.18 5.02567 5.0252 0.0322923 -0.114858 1428990.0
112 -0.05885 8.83424e-05 861.885 273.182 5.02565 5.0252 0.0814879 -0.0774748 1428950.0
113 -0.05875 8.83434e-05 861.878 273.188 5.02581 5.0256 -0.0658982 -0.343143 1429360.0
114 -0.05865 8.83437e-05 861.879 273.184 5.02574 5.02544 -0.0252606 -0.27068 1429190.0
115 -0.05855 8.83434e-05 861.88 273.188 5.02579 5.02549 -0.0560498 -0.287996 1429300.0
116 -0.05845 8.83436e-05 861.876 273.192 5.02588 5.02572 -0.140559 -0.400559 1429490.0
117 -0.05835 8.83443e-05 861.874 273.194 5.02596 5.0259 -0.157155 -0.448008 1429630.0
118 -0.05825 8.83438e-05 861.869 273.194 5.02594 5.02604 -0.16228 -0.519068 1429720.0
119 -0.05815 8.83432e-05 861.876 273.186 5.02575 5.02555 -0.00425493 -0.204034 1429300.0
120 -0.05805 8.83429e-05 861.882 273.18 5.02563 5.02514 0.108932 0.0471642 1428930.0
121 -0.05795 8.83426e-05 861.886 273.177 5.02555 5.02497 0.184186 0.181675 1428780.0
122 -0.05785 8.83421e-05 861.879 273.182 5.02562 5.02545 0.022145 -0.161353 1429160.0
123 -0.05775 8.83425e-05 861.88 273.179 5.02558 5.02537 0.0651821 -0.0689633 1429070.0
124 -0.05765 8.8343e-05 861.874 273.19 5.02581 5.02591 -0.107906 -0.397834 1429510.0
125 -0.05755 8.83431e-05 861.873 273.194 5.02589 5.02595 -0.178869 -0.465297 1429650.0
126 -0.05745 8.83435e-05 861.876 273.188 5.02581 5.02574 -0.0867501 -0.321824 1429410.0
127 -0.05735 8.83419e-05 861.885 273.184 5.02564 5.02522 0.0266837 -0.0457144 1429070.0
128 -0.05725 8.83421e-05 861.881 273.184 5.02565 5.02534 0.00246731 -0.0947291 1429170.0
129 -0.05715 8.83419e-05 861.884 273.184 5.02564 5.02522 -0.0376164 -0.140729 1429240.0
130 -0.05705 8.83426e-05 861.878 273.192 5.02583 5.0257 -0.134132 -0.374985 1429580.0
131 -0.05695 8.83419e-05 861.882 273.189 5.02573 5.02544 -0.110972 -0.238295 1429440.0
132 -0.05685 8.83411e-05 861.889 273.181 5.02554 5.02485 -0.0104529 -0.00104139 1429080.0
133 -0.05675 8.83416e-05 861.885 273.186 5.02566 5.02528 -0.0794051 -0.236104 1429340.0
134 -0.05665 8.8342e-05 861.879 273.192 5.0258 5.02556 -0.162691 -0.388889 1429600.0
135 -0.05655 8.83411e-05 861.891 273.179 5.0255 5.02488 0.0120692 -0.00562597 1429050.0
136 -0.05645 8.83415e-05 861.884 273.183 5.02561 5.02518 -0.03265 -0.150281 1429230.0
137 -0.05635 8.83419e-05 861.879 273.194 5.02582 5.02568 -0.176395 -0.365607 1429620.0
138 -0.05625 8.83426e-05 861.878 273.189 5.02577 5.02577 -0.108747 -0.294397 1429550.0
139 -0.05615 8.8343e-05 861.872 273.192 5.02586 5.02616 -0.196688 -0.53053 1429840.0
140 -0.05605 8.83427e-05 861.872 273.19 5.02581 5.02588 -0.156595 -0.421327 1429600.0
141 -0.05595 8.83437e-05 861.874 273.193 5.02592 5.02598 -0.173321 -0.396047 1429650.0
142 -0.05585 8.83431e-05 861.876 273.193 5.02588 5.02582 -0.209557 -0.402672 1429620.0
143 -0.05575 8.83438e-05 861.874 273.199 5.02602 5.02602 -0.323664 -0.594674 1429860.0
144 -0.05565 8.83436e-05 861.869 273.197 5.02599 5.02608 -0.234437 -0.514663 1429790.0
145 -0.05555 8.83434e-05 861.878 273.184 5.02573 5.02555 0.0083641 -0.166916 1429290.0
146 -0.05545 8.8344e-05 861.873 273.193 5.02592 5.02589 -0.143191 -0.432883 1429640.0
147 -0.05535 8.83426e-05 861.879 273.183 5.02567 5.02542 -0.0212979 -0.18646 1429230.0
148 -0.05525 8.83427e-05 861.882 273.181 5.02563 5.02529 0.10256 -0.0347487 1429080.0
149 -0.05515 8.83425e-05 861.883 273.179 5.02559 5.02515 0.0968278 0.0159488 1429040.0
150 -0.05505 8.83426e-05 861.881 273.186 5.02572 5.02525 -0.0190317 -0.134283 1429300.0
151 -0.05495 8.8343e-05 861.88 273.19 5.02582 5.02547 -0.0902893 -0.25732 1429460.0
152 -0.05485 8.83432e-05 861.878 273.188 5.02579 5.02555 -0.0850845 -0.282679 1429480.0
153 -0.05475 8.83433e-05 861.879 273.19 5.02584 5.02562 -0.109889 -0.345767 1429590.0
154 -0.05465 8.83425e-05 861.871 273.192 5.02584 5.0258 -0.171638 -0.5413 1429720.0
155 -0.05455 8.83442e-05 861.87 273.2 5.02607 5.02627 -0.285902 -0.686799 1430040.0
156 -0.05445 8.83431e-05 861.883 273.185 5.02574 5.02524 -0.00940923 -0.0315175 1429290.0
157 -0.05435 8.83428e-05 861.878 273.192 5.02585 5.02556 -0.132439 -0.33632 1429640.0
158 -0.05425 8.8343e-05 861.884 273.183 5.02569 5.02522 0.0153868 -0.0135447 1429290.0
159 -0.05415 8.83427e-05 861.885 273.183 5.02568 5.02516 0.0668825 0.0659897 1429250.0
160 -0.05405 8.83429e-05 861.882 273.185 5.02572 5.02521 0.0192734 0.0575168 1429290.0
161 -0.05395 8.83436e-05 861.879 273.184 5.02575 5.02542 0.0378492 -0.0868179 1429300.0
162 -0.05385 8.83424e-05 861.887 273.178 5.02557 5.02487 0.160333 0.205166 1428940.0
163 -0.05375 8.83434e-05 861.882 273.184 5.02574 5.0252 0.0374581 0.00495536 1429260.0
164 -0.05365 8.83432e-05 861.875 273.194 5.0259 5.02574 -0.136146 -0.332151 1429670.0
165 -0.05355 8.83431e-05 861.876 273.191 5.02584 5.02562 -0.108398 -0.366213 1429560.0
166 -0.05345 8.83428e-05 861.876 273.195 5.02589 5.02565 -0.167835 -0.342 1429650.0
167 -0.05335 8.83423e-05 861.884 273.187 5.02572 5.02518 -0.068987 -0.0645039 1429360.0
168 -0.05325 8.83436e-05 861.875 273.197 5.02597 5.02586 -0.213903 -0.432648 1429790.0
169 -0.05315 8.83434e-05 861.872 273.198 5.02599 5.02596 -0.260421 -0.478566 1429880.0
170 -0.05305 8.83434e-05 861.878 273.193 5.0259 5.0257 -0.136804 -0.219488 1429650.0
171 -0.05295 8.83421e-05 861.888 273.177 5.02553 5.02476 0.108963 0.331384 1428920.0
172 -0.05285 8.83426e-05 861.883 273.185 5.02569 5.025 0.0251099 0.188408 1429210.0
173 -0.05275 8.83412e-05 861.89 273.179 5.02552 5.02459 0.12122 0.377127 1428920.0
174 -0.05265 8.83411e-05 861.891 273.174 5.02541 5.02445 0.214585 0.452572 1428760.0
175 -0.05255 8.8342e-05 861.887 273.18 5.02558 5.02481 0.0921908 0.230632 1429090.0
176 -0.05245 8.83421e-05 861.885 273.183 5.02564 5.025 0.041246 0.13114 1429260.0
177 -0.05235 8.8342e-05 861.882 273.181 5.0256 5.02493 0.0720641 0.12914 1429160.0
178 -0.05225 8.83421e-05 861.883 273.187 5.02571 5.02532 -0.00736111 -0.0931729 1429390.0
179 -0.05215 8.83425e-05 861.879 273.184 5.02568 5.02532 0.0569792 -0.0309908 1429250.0
180 -0.05205 8.83426e-05 861.881 273.182 5.02564 5.02516 0.0883707 0.0341155 1429190.0
181 -0.05195 8.83424e-05 861.882 273.189 5.02576 5.02541 -0.0239064 -0.092931 1429450.0
182 -0.05185 8.83423e-05 861.876 273.193 5.02583 5.02551 -0.122532 -0.236335 1429610.0
183 -0.05175 8.8343e-05 861.88 273.187 5.02577 5.02539 -0.0197108 -0.106982 1429420.0
184 -0.05165 8.83425e-05 861.877 273.192 5.02583 5.02557 -0.0807459 -0.196412 1429590.0
185 -0.05155 8.83425e-05 861.886 273.179 5.02559 5.02492 0.152183 0.334146 1428990.0
186 -0.05145 8.83416e-05 861.884 273.182 5.02559 5.025 0.116327 0.278805 1429080.0
187 -0.05135 8.83428e-05 861.874 273.191 5.02582 5.02565 -0.095558 -0.144671 1429590.0
188 -0.05125 8.83426e-05 861.876 273.192 5.02582 5.02567 -0.0705913 -0.11239 1429530.0
189 -0.05115 8.83433e-05 861.875 273.188 5.0258 5.02561 -0.0403519 -0.068018 1429460.0
190 -0.05105 8.83424e-05 861.881 273.183 5.02566 5.02519 0.0934981 0.216959 1429110.0
191 -0.05095 8.83425e-05 861.885 273.174 5.0255 5.02485 0.209025 0.387759 1428820.0
192 -0.05085 8.83433e-05 861.876 273.19 5.02584 5.02557 -0.065172 -0.0830775 1429440.0
193 -0.05075 8.83435e-05 861.872 273.198 5.02599 5.02593 -0.226794 -0.392243 1429730.0
194 -0.05065 8.83443e-05 861.872 273.195 5.02598 5.02579 -0.164779 -0.273697 1429570.0
195 -0.05055 8.8342e-05 861.884 273.181 5.0256 5.02491 0.113812 0.232972 1428840.0
196 -0.05045 8.8344e-05 861.875 273.195 5.02596 5.02576 -0.171764 -0.27137 1429510.0
197 -0.05035 8.83434e-05 861.873 273.192 5.02589 5.02568 -0.175501 -0.315376 1429500.0
198 -0.05025 8.83433e-05 861.875 273.195 5.02593 5.02572 -0.146511 -0.327549 1429460.0
199 -0.05015 8.83427e-05 861.883 273.183 5.02566 5.02498 0.0522909 0.116477 1428860.0
200 -0.05005 8.83428e-05 861.88 273.19 5.0258 5.02533 -0.0828549 -0.0538808 1429170.0
201 -0.04995 8.8344e-05 861.876 273.194 5.02595 5.02565 -0.140828 -0.168169 1429310.0
202 -0.04985 8.83436e-05 861.881 273.19 5.02586 5.02537 -0.100598 -0.0127865 1429170.0
203 -0.04975 8.83442e-05 861.882 273.193 5.02594 5.02552 -0.106032 -0.000186092 1429270.0
204 -0.04965 8.83426e-05 861.881 273.186 5.02571 5.02516 -0.00942056 0.150449 1429080.0
205 -0.04955 8.8344e-05 861.878 273.191 5.02589 5.02558 -0.0921881 -0.12143 1429350.0
206 -0.04945 8.83425e-05 861.886 273.18 5.0256 5.02496 0.117602 0.308625 1428830.0
207 -0.04935 8.83433e-05 861.882 273.182 5.02568 5.02532 0.0787235 0.180974 1429040.0
208 -0.04925 8.83438e-05 861.879 273.186 5.02579 5.02543 -0.00706726 0.0627713 1429160.0
209 -0.04915 8.83441e-05 861.877 273.187 5.02584 5.0256 -0.0348228 -0.0615409 1429280.0
210 -0.04905 8.83446e-05 861.877 273.191 5.02593 5.02579 -0.0980828 -0.122236 1429460.0
211 -0.04895 8.8344e-05 861.872 273.191 5.02589 5.02585 -0.103165 -0.154175 1429450.0
212 -0.04885 8.83439e-05 861.877 273.189 5.02585 5.02565 -0.0586969 -0.0199205 1429340.0
213 -0.04875 8.83452e-05 861.87 273.196 5.02605 5.02621 -0.228054 -0.430241 1429780.0
214 -0.04865 8.83453e-05 861.865 273.203 5.02619 5.02643 -0.276307 -0.533781 1429930.0
215 -0.04855 8.83452e-05 861.863 273.204 5.0262 5.02653 -0.338765 -0.662177 1430030.0
216 -0.04845 8.83461e-05 861.857 273.213 5.02642 5.02704 -0.528894 -0.991153 1430420.0
217 -0.04835 8.8346e-05 861.86 273.212 5.0264 5.02679 -0.527616 -0.908944 1430400.0
218 -0.04825 8.83444e-05 861.872 273.196 5.026 5.02572 -0.192658 -0.309845 1429480.0
219 -0.04815 8.83446e-05 861.87 273.199 5.02608 5.02596 -0.257692 -0.429906 1429640.0
220 -0.04805 8.83452e-05 861.866 273.206 5.02624 5.02628 -0.393894 -0.65458 1429960.0
221 -0.04795 8.83433e-05 861.879 273.189 5.02581 5.02529 -0.030738 0.0145496 1429110.0
222 -0.04785 8.83442e-05 861.88 273.188 5.02584 5.02522 -0.0252639 0.00578817 1429070.0
223 -0.04775 8.83438e-05 861.882 273.184 5.02575 5.02502 0.0164312 0.144215 1428920.0
224 -0.04765 8.83434e-05 861.88 273.186 5.02577 5.02517 0.0270527 0.137913 1428980.0
225 -0.04755 8.83427e-05 861.882 273.183 5.02567 5.02494 0.0331293 0.20342 1428830.0
226 -0.04745 8.8344e-05 861.881 273.191 5.02589 5.02531 -0.0947478 -0.0697519 1429240.0
227 -0.04735 8.83434e-05 861.879 273.191 5.02586 5.02521 -0.11192 -0.071651 1429210.0
228 -0.04725 8.83435e-05 861.888 273.178 5.02563 5.02458 0.106356 0.34242 1428690.0
229 -0.04715 8.83432e-05 861.884 273.182 5.02568 5.02479 0.0522987 0.20356 1428840.0
230 -0.04705 8.83445e-05 861.881 273.187 5.02585 5.02516 -0.0820453 0.00824856 1429120.0
231 -0.04695 8.83446e-05 861.874 273.194 5.02599 5.02555 -0.235863 -0.332703 1429530.0
232 -0.04685 8.83438e-05 861.88 273.192 5.02589 5.02523 -0.201279 -0.172919 1429340.0
233 -0.04675 8.83442e-05 861.879 273.19 5.02589 5.0253 -0.164904 -0.207746 1429330.0
234 -0.04665 8.83447e-05 861.875 273.196 5.02603 5.02575 -0.263154 -0.36331 1429640.0
235 -0.04655 8.8345e-05 861.868 273.199 5.02609 5.0259 -0.317303 -0.467721 1429800.0
236 -0.04645 8.83448e-05 861.877 273.192 5.02595 5.02554 -0.202161 -0.225618 1429510.0
237 -0.04635 8.83444e-05 861.877 273.195 5.02599 5.02548 -0.236291 -0.190456 1429540.0
238 -0.04625 8.83457e-05 861.868 273.204 5.02623 5.02618 -0.428589 -0.579491 1430120.0
239 -0.04615 8.83451e-05 861.868 273.198 5.02608 5.02609 -0.360753 -0.590303 1429970.0
240 -0.04605 8.83445e-05 861.874 273.192 5.02595 5.02571 -0.179135 -0.234053 1429530.0
241 -0.04595 8.83444e-05 861.873 273.191 5.02591 5.02563 -0.110416 -0.133591 1429470.0
242 -0.04585 8.8345e-05 861.869 273.196 5.02605 5.02607 -0.209838 -0.343364 1429760.0
243 -0.04575 8.83461e-05 861.861 273.203 5.02624 5.02662 -0.380174 -0.677423 1430180.0
244 -0.04565 8.83448e-05 861.869 273.194 5.026 5.02603 -0.155423 -0.235827 1429700.0
245 -0.04555 8.8346e-05 861.86 273.202 5.02622 5.02649 -0.300147 -0.526723 1430100.0
246 -0.04545 8.83446e-05 861.867 273.198 5.02605 5.02624 -0.272597 -0.466247 1429980.0
247 -0.04535 8.83448e-05 861.869 273.193 5.02598 5.02597 -0.178552 -0.315233 1429710.0
248 -0.04525 8.83445e-05 861.869 273.191 5.02592 5.02582 -0.0770024 -0.138779 1429450.0
249 -0.04515 8.83457e-05 861.868 273.19 5.02597 5.0261 -0.0908766 -0.20366 1429520.0
250 -0.04505 8.83453e-05 861.869 273.191 5.02596 5.02604 -0.0705709 -0.21478 1429500.0
251 -0.04495 8.83451e-05 861.866 273.196 5.02604 5.02607 -0.182153 -0.35545 1429600.0
252 -0.04485 8.8345e-05 861.87 273.192 5.02596 5.02592 -0.0829718 -0.218981 1429470.0
253 -0.04475 8.83446e-05 861.877 273.184 5.0258 5.02551 -0.00370997 -0.0763297 1429180.0
254 -0.04465 8.8345e-05 861.868 273.193 5.02599 5.02595 -0.119309 -0.275725 1429540.0
255 -0.04455 8.83437e-05 861.879 273.18 5.02568 5.02521 0.126721 0.203374 1428900.0
256 -0.04445 8.83444e-05 861.866 273.198 5.02604 5.02612 -0.213707 -0.388871 1429720.0
257 -0.04435 8.83452e-05 861.866 273.198 5.02608 5.02621 -0.199303 -0.406403 1429680.0
258 -0.04425 8.83444e-05 861.871 273.187 5.02584 5.02577 -0.0207166 -0.117683 1429260.0
259 -0.04415 8.83447e-05 861.865 273.201 5.02611 5.02621 -0.256155 -0.435752 1429760.0
260 -0.04405 8.83461e-05 861.862 273.204 5.02624 5.02656 -0.363018 -0.710806 1430080.0
261 -0.04395 8.83444e-05 861.869 273.196 5.026 5.0258 -0.184588 -0.27113 1429560.0
262 -0.04385 8.83454e-05 861.866 273.197 5.02608 5.026 -0.257576 -0.462354 1429760.0
263 -0.04375 8.83454e-05 861.867 273.199 5.02612 5.02607 -0.243132 -0.451023 1429780.0
264 -0.04365 8.83446e-05 861.873 273.193 5.02596 5.0256 -0.0805987 -0.132312 1429370.0
265 -0.04355 8.83443e-05 861.875 273.183 5.02576 5.02511 0.00785433 0.0766357 1429020.0
266 -0.04345 8.8345e-05 861.874 273.188 5.02589 5.02562 -0.0357308 -0.0789237 1429290.0
267 -0.04335 8.83455e-05 861.87 273.195 5.02605 5.02592 -0.130429 -0.258936 1429490.0
268 -0.04325 8.83453e-05 861.868 273.19 5.02596 5.02564 -0.0458442 -0.0570736 1429270.0
269 -0.04315 8.83456e-05 861.873 273.19 5.02597 5.02554 -0.0632763 -0.00644085 1429290.0
270 -0.04305 8.83453e-05 861.867 273.204 5.02621 5.02619 -0.334885 -0.487554 1429970.0
271 -0.04295 8.83453e-05 861.87 273.195 5.02603 5.02586 -0.170542 -0.231092 1429570.0
272 -0.04285 8.83457e-05 861.865 273.203 5.0262 5.02625 -0.281656 -0.40931 1429940.0
273 -0.04275 8.83445e-05 861.871 273.192 5.02594 5.0257 -0.113479 -0.09855 1429500.0
274 -0.04265 8.83448e-05 861.876 273.188 5.02588 5.02553 -0.0175081 0.0140004 1429280.0
275 -0.04255 8.83446e-05 861.876 273.189 5.0259 5.02545 -0.0261607 0.114315 1429240.0
276 -0.04245 8.83447e-05 861.875 273.188 5.02588 5.02547 -0.0159866 0.106678 1429270.0
277 -0.04235 8.83445e-05 861.876 273.184 5.0258 5.02533 0.0639311 0.293019 1429100.0
278 -0.04225 8.83451e-05 861.873 273.188 5.02591 5.02552 -0.0325385 0.167215 1429300.0
279 -0.04215 8.83453e-05 861.873 273.188 5.02592 5.02553 0.0054798 0.228757 1429220.0
280 -0.04205 8.83453e-05 861.87 273.188 5.02591 5.02551 -0.040853 0.158822 1429260.0
281 -0.04195 8.83451e-05 861.871 273.192 5.02598 5.02566 -0.0616165 0.0910642 1429380.0
282 -0.04185 8.83452e-05 861.873 273.194 5.02602 5.02558 -0.0710556 0.0575525 1429400.0
283 -0.04175 8.83458e-05 861.872 273.189 5.02596 5.02549 -0.105919 -0.0510675 1429330.0
284 -0.04165 8.83459e-05 861.867 273.198 5.02614 5.02595 -0.18669 -0.252298 1429630.0
285 -0.04155 8.83463e-05 861.864 273.202 5.02622 5.02621 -0.260143 -0.384707 1429840.0
286 -0.04145 8.83463e-05 861.862 273.205 5.02628 5.02631 -0.289291 -0.427076 1429930.0
287 -0.04135 8.83464e-05 861.866 273.198 5.02616 5.02593 -0.204932 -0.231271 1429670.0
288 -0.04125 8.83458e-05 861.875 273.194 5.02606 5.02541 -0.101122 0.110774 1429360.0
289 -0.04115 8.83453e-05 861.874 273.191 5.02597 5.0253 -0.0757628 0.145078 1429260.0
290 -0.04105 8.8346e-05 861.875 273.189 5.02598 5.02527 -0.0516632 0.182392 1429200.0
291 -0.04095 8.83457e-05 861.874 273.191 5.02598 5.02539 -0.0405709 0.160297 1429220.0
292 -0.04085 8.83454e-05 861.872 273.188 5.02592 5.02546 -0.0373713 0.142061 1429250.0
293 -0.04075 8.8346e-05 861.872 273.186 5.02592 5.02536 0.0253777 0.246668 1429130.0
294 -0.04065 8.83466e-05 861.868 273.197 5.02615 5.02589 -0.153489 -0.0556025 1429630.0
295 -0.04055 8.83473e-05 861.861 273.201 5.02627 5.02617 -0.197409 -0.149584 1429760.0
296 -0.04045 8.83469e-05 861.858 273.206 5.02633 5.02646 -0.332139 -0.45928 1430050.0
297 -0.04035 8.8347e-05 861.859 273.205 5.02632 5.02643 -0.334102 -0.48873 1430000.0
298 -0.04025 8.83468e-05 861.861 273.2 5.02622 5.02612 -0.190857 -0.233061 1429660.0
299 -0.04015 8.83466e-05 861.868 273.196 5.02614 5.02587 -0.116845 -0.0850787 1429500.0
300 -0.04005 8.83476e-05 861.863 273.201 5.02629 5.02627 -0.21583 -0.335281 1429780.0
301 -0.03995 8.83474e-05 861.858 273.207 5.02638 5.02654 -0.302305 -0.506523 1430040.0
302 -0.03985 8.83467e-05 861.861 273.203 5.02627 5.02627 -0.217617 -0.293142 1429850.0
303 -0.03975 8.8346e-05 861.872 273.19 5.02598 5.02556 -0.0134058 0.153356 1429290.0
304 -0.03965 8.83467e-05 861.873 273.19 5.02602 5.02554 0.0137584 0.233094 1429250.0
305 -0.03955 8.83458e-05 861.874 273.185 5.02589 5.02537 0.0998149 0.366364 1429080.0
306 -0.03945 8.83463e-05 861.869 273.193 5.02606 5.02574 -0.0601781 0.00299188 1429460.0
307 -0.03935 8.83452e-05 861.878 273.187 5.02588 5.02524 0.0479368 0.195495 1429070.0
308 -0.03925 8.83458e-05 861.87 273.197 5.02611 5.02573 -0.118419 -0.13339 1429550.0
309 -0.03915 8.83451e-05 861.877 273.188 5.0259 5.02525 0.0303428 0.151118 1429190.0
310 -0.03905 8.8345e-05 861.874 273.193 5.02598 5.02543 -0.0385022 0.0139541 1429390.0
311 -0.03895 8.83451e-05 861.877 273.186 5.02587 5.02527 0.059868 0.112475 1429150.0
312 -0.03885 8.83446e-05 861.881 273.186 5.02583 5.02501 0.117254 0.304002 1428990.0
313 -0.03875 8.83438e-05 861.884 273.184 5.02575 5.0248 0.102972 0.299601 1428950.0
314 -0.03865 8.83442e-05 861.882 273.187 5.02583 5.02495 0.0648138 0.306913 1429100.0
315 -0.03855 8.83439e-05 861.885 273.179 5.02567 5.02464 0.232283 0.593524 1428760.0
316 -0.03845 8.83435e-05 861.883 273.181 5.02568 5.02479 0.186146 0.487561 1428840.0
317 -0.03835 8.83452e-05 861.876 273.187 5.02589 5.02535 0.0908932 0.234731 1429210.0
318 -0.03825 8.83453e-05 861.865 273.198 5.0261 5.02607 -0.0995552 -0.224528 1429810.0
319 -0.03815 8.83463e-05 861.868 273.193 5.02607 5.02605 -0.0266242 -0.107257 1429630.0
320 -0.03805 8.83457e-05 861.864 273.198 5.02612 5.02618 -0.131229 -0.270163 1429820.0
321 -0.03795 8.83457e-05 861.875 273.192 5.02601 5.02572 0.0461007 0.0340128 1429420.0
322 -0.03785 8.83455e-05 861.867 273.199 5.02613 5.02605 -0.146697 -0.307745 1429790.0
323 -0.03775 8.83452e-05 861.867 273.199 5.02612 5.02617 -0.134097 -0.240126 1429850.0
324 -0.03765 8.83454e-05 861.872 273.195 5.02605 5.02582 -0.0689206 -0.105356 1429550.0
325 -0.03755 8.83452e-05 861.869 273.194 5.02602 5.02584 0.00315267 -0.056567 1429480.0
326 -0.03745 8.83456e-05 861.868 273.193 5.02601 5.02595 -0.00778962 -0.117008 1429520.0
327 -0.03735 8.83466e-05 861.861 273.2 5.02621 5.02658 -0.156641 -0.447561 1430000.0
328 -0.03725 8.83447e-05 861.873 273.188 5.02587 5.02568 0.120399 0.116192 1429310.0
329 -0.03715 8.83455e-05 861.874 273.184 5.02586 5.02551 0.17497 0.182788 1429160.0
330 -0.03705 8.83452e-05 861.874 273.186 5.02588 5.02558 0.131317 0.106402 1429260.0
331 -0.03695 8.83449e-05 861.879 273.181 5.02576 5.02519 0.189862 0.316211 1429010.0
332 -0.03685 8.83448e-05 861.879 273.184 5.0258 5.02528 0.194478 0.272052 1429030.0
333 -0.03675 8.83454e-05 861.875 273.185 5.02586 5.02538 0.138639 0.212603 1429170.0
334 -0.03665 8.83456e-05 861.872 273.193 5.02602 5.02577 0.015412 -0.0104948 1429480.0
335 -0.03655 8.83465e-05 861.869 273.194 5.02609 5.02608 -0.0255223 -0.129275 1429630.0
336 -0.03645 8.83466e-05 861.862 273.199 5.02618 5.02632 -0.10726 -0.348211 1429890.0
337 -0.03635 8.83467e-05 861.859 273.207 5.02635 5.02677 -0.25178 -0.623578 1430270.0
338 -0.03625 8.83455e-05 861.866 273.195 5.02605 5.02601 -0.0597652 -0.232229 1429700.0
339 -0.03615 8.83455e-05 861.875 273.189 5.02594 5.02561 0.0689798 0.054615 1429420.0
340 -0.03605 8.83447e-05 861.872 273.19 5.02591 5.02564 -0.0194049 -0.0925119 1429480.0
341 -0.03595 8.83456e-05 861.87 273.19 5.02596 5.0258 0.0372466 -0.0656151 1429470.0
342 -0.03585 8.83449e-05 861.868 273.195 5.02603 5.02594 -0.0497192 -0.180502 1429620.0
343 -0.03575 8.83461e-05 861.865 273.2 5.02617 5.02621 -0.111933 -0.275216 1429780.0
344 -0.03565 8.83456e-05 861.867 273.197 5.02609 5.02604 -0.0805287 -0.195611 1429670.0
345 -0.03555 8.83445e-05 861.872 273.188 5.02587 5.02554 0.0892637 0.102454 1429250.0
346 -0.03545 8.83458e-05 861.867 273.191 5.026 5.02599 0.0755196 -0.0196342 1429430.0
347 -0.03535 8.83453e-05 861.869 273.191 5.02597 5.02593 0.0611864 -0.0246405 1429430.0