ITEM: TIMESTEP
10000
ITEM: NUMBER OF CELLS
1000
ITEM: BOX BOUNDS os pp pp
-0.07 0.03
-0.001 0.001
-0.001 0.001
ITEM: CELLS id f_1[1] f_1[2] f_1[3] f_1[4] f_1[5] f_1[6] f_1[7] f_1[8] f_1[9] 
1 -0.06995 8.83452e-05 861.862 273.219 5.02648 5.02619 -0.612369 -1.18312 1.42917e+06 
2 -0.06985 8.83449e-05 861.856 273.222 5.02651 5.02659 -0.693154 -1.453 1.42939e+06 
3 -0.06975 8.83455e-05 861.861 273.219 5.02649 5.02641 -0.604591 -1.21309 1.4292e+06 
4 -0.06965 8.83437e-05 861.869 273.208 5.02618 5.02569 -0.42926 -0.941722 1.42867e+06 
5 -0.06955 8.83441e-05 861.863 273.213 5.0263 5.02602 -0.490582 -1.06319 1.42891e+06 
6 -0.06945 8.83442e-05 861.864 273.214 5.02632 5.02609 -0.517948 -1.04762 1.42898e+06 
7 -0.06935 8.8344e-05 861.868 273.211 5.02626 5.02579 -0.5011 -1.00562 1.42886e+06 
8 -0.06925 8.83448e-05 861.862 273.218 5.02643 5.02606 -0.626481 -1.1669 1.42915e+06 
9 -0.06915 8.83443e-05 861.863 273.218 5.02641 5.02604 -0.633478 -1.23862 1.42919e+06 
10 -0.06905 8.83437e-05 861.869 273.212 5.02627 5.02568 -0.545907 -0.998105 1.4289e+06 
11 -0.06895 8.83439e-05 861.87 273.21 5.02624 5.02567 -0.521013 -0.976724 1.42888e+06 
12 -0.06885 8.83442e-05 861.867 273.218 5.02639 5.02593 -0.662631 -1.18249 1.4292e+06 
13 -0.06875 8.83447e-05 861.862 273.22 5.02646 5.02619 -0.723818 -1.32727 1.42939e+06 
14 -0.06865 8.83441e-05 861.866 273.212 5.02628 5.02576 -0.557611 -0.993606 1.429e+06 
15 -0.06855 8.83438e-05 861.867 273.215 5.02632 5.02581 -0.63198 -1.09063 1.42907e+06 
16 -0.06845 8.83442e-05 861.865 273.214 5.02632 5.02586 -0.601435 -1.01479 1.42909e+06 
17 -0.06835 8.83449e-05 861.86 273.219 5.02646 5.02626 -0.663418 -1.21045 1.42934e+06 
18 -0.06825 8.83443e-05 861.864 273.215 5.02635 5.02605 -0.587018 -1.15073 1.42917e+06 
19 -0.06815 8.83442e-05 861.869 273.21 5.02624 5.02571 -0.529398 -1.03011 1.42896e+06 
20 -0.06805 8.83443e-05 861.864 273.215 5.02636 5.02597 -0.63777 -1.17586 1.42924e+06 
21 -0.06795 8.8344e-05 861.867 273.212 5.02628 5.02578 -0.536798 -1.03955 1.42911e+06 
22 -0.06785 8.83439e-05 861.874 273.203 5.02612 5.02544 -0.336811 -0.688681 1.42866e+06 
23 -0.06775 8.8343e-05 861.874 273.201 5.02602 5.02524 -0.362237 -0.635943 1.42864e+06 
24 -0.06765 8.83429e-05 861.876 273.2 5.02599 5.02504 -0.254899 -0.444235 1.42844e+06 
25 -0.06755 8.83437e-05 861.876 273.201 5.02606 5.02525 -0.336703 -0.578031 1.42865e+06 
26 -0.06745 8.83443e-05 861.861 273.219 5.02643 5.02626 -0.667123 -1.16428 1.42956e+06 
27 -0.06735 8.8344e-05 861.866 273.211 5.02626 5.02572 -0.551382 -0.858824 1.42918e+06 
28 -0.06725 8.83436e-05 861.867 273.211 5.02623 5.02575 -0.506864 -0.848954 1.42913e+06 
29 -0.06715 8.8344e-05 861.863 273.215 5.02633 5.02606 -0.612765 -1.01557 1.42938e+06 
30 -0.06705 8.83437e-05 861.865 273.214 5.0263 5.02595 -0.540134 -0.910694 1.42931e+06 
31 -0.06695 8.83434e-05 861.869 273.208 5.02616 5.02567 -0.462328 -0.798319 1.42909e+06 
32 -0.06685 8.8344e-05 861.862 273.213 5.02629 5.02606 -0.609205 -1.08173 1.42949e+06 
33 -0.06675 8.83438e-05 861.871 273.208 5.0262 5.02569 -0.474788 -0.843294 1.4292e+06 
34 -0.06665 8.83426e-05 861.874 273.202 5.02601 5.02544 -0.335738 -0.62165 1.42893e+06 
35 -0.06655 8.83436e-05 861.868 273.204 5.02611 5.0257 -0.373098 -0.65953 1.42908e+06 
36 -0.06645 8.83441e-05 861.862 273.212 5.02628 5.0261 -0.529157 -0.958453 1.42951e+06 
37 -0.06635 8.83431e-05 861.872 273.203 5.02606 5.02557 -0.289628 -0.575528 1.42898e+06 
38 -0.06625 8.83448e-05 861.862 273.214 5.02637 5.02624 -0.553663 -0.997208 1.42961e+06 
39 -0.06615 8.83439e-05 861.862 273.213 5.02629 5.02618 -0.549856 -0.99202 1.42961e+06 
40 -0.06605 8.83441e-05 861.864 273.215 5.02635 5.02617 -0.558881 -0.92801 1.42966e+06 
41 -0.06595 8.83436e-05 861.867 273.207 5.02617 5.02571 -0.472045 -0.700387 1.42934e+06 
42 -0.06585 8.83445e-05 861.865 273.213 5.02632 5.0259 -0.53434 -0.853129 1.42952e+06 
43 -0.06575 8.83444e-05 861.863 273.219 5.02643 5.02618 -0.626382 -1.02221 1.42978e+06 
44 -0.06565 8.83438e-05 861.867 273.212 5.02627 5.02587 -0.475421 -0.842241 1.42948e+06 
45 -0.06555 8.83438e-05 861.869 273.212 5.02626 5.0256 -0.507193 -0.823162 1.42947e+06 
46 -0.06545 8.8343e-05 861.873 273.207 5.02613 5.02535 -0.399468 -0.616748 1.42925e+06 
47 -0.06535 8.83428e-05 861.879 273.201 5.02601 5.02498 -0.272318 -0.362636 1.42895e+06 
48 -0.06525 8.83422e-05 861.877 273.204 5.02604 5.02504 -0.325958 -0.504246 1.42908e+06 
49 -0.06515 8.83426e-05 861.881 273.198 5.02595 5.02475 -0.281236 -0.356554 1.42891e+06 
50 -0.06505 8.83409e-05 861.89 273.193 5.02576 5.0242 -0.134317 -0.0609601 1.4285e+06 
51 -0.06495 8.83422e-05 861.885 273.194 5.02585 5.02453 -0.117212 -0.183701 1.42857e+06 
52 -0.06485 8.83429e-05 861.879 273.199 5.02597 5.02491 -0.242978 -0.395574 1.42886e+06 
53 -0.06475 8.83423e-05 861.88 273.197 5.0259 5.02478 -0.24333 -0.293064 1.42885e+06 
54 -0.06465 8.83432e-05 861.871 273.206 5.02613 5.02549 -0.373422 -0.591049 1.42927e+06 
55 -0.06455 8.83441e-05 861.867 273.213 5.0263 5.02585 -0.480308 -0.734254 1.4295e+06 
56 -0.06445 8.8343e-05 861.871 273.202 5.02605 5.02538 -0.310205 -0.412569 1.42907e+06 
57 -0.06435 8.83446e-05 861.867 273.206 5.02619 5.02574 -0.349771 -0.591192 1.42927e+06 
58 -0.06425 8.83434e-05 861.872 273.201 5.02605 5.02545 -0.267053 -0.409341 1.42905e+06 
59 -0.06415 8.83441e-05 861.864 273.205 5.02616 5.02583 -0.303778 -0.515504 1.42925e+06 
60 -0.06405 8.83435e-05 861.873 273.201 5.02604 5.02538 -0.228106 -0.267122 1.429e+06 
61 -0.06395 8.83448e-05 861.861 273.21 5.02629 5.02615 -0.475549 -0.764046 1.42961e+06 
62 -0.06385 8.83432e-05 861.87 273.203 5.02606 5.02551 -0.254443 -0.284975 1.42907e+06 
63 -0.06375 8.83439e-05 861.87 273.202 5.0261 5.02561 -0.304471 -0.438196 1.42912e+06 
69 -0.06315 8.83437e-05 861.867 273.212 5.02627 5.02588 -0.482756 -0.696386 1.4296e+06 
65 -0.06355 8.8344e-05 861.864 273.211 5.02626 5.02592 -0.472739 -0.761484 1.42948e+06 
66 -0.06345 8.83438e-05 861.874 273.202 5.02608 5.02542 -0.246927 -0.295219 1.429e+06 
67 -0.06335 8.83432e-05 861.871 273.204 5.02609 5.02543 -0.327771 -0.402905 1.42915e+06 
68 -0.06325 8.83436e-05 861.868 273.206 5.02614 5.02567 -0.390016 -0.544099 1.42934e+06 
70 -0.06305 8.83441e-05 861.87 273.206 5.02617 5.02561 -0.361734 -0.452613 1.42931e+06 
71 -0.06295 8.8343e-05 861.873 273.201 5.02602 5.02528 -0.21213 -0.16628 1.429e+06 
72 -0.06285 8.83439e-05 861.868 273.204 5.02612 5.02566 -0.355996 -0.426889 1.42931e+06 
73 -0.06275 8.83445e-05 861.867 273.214 5.02635 5.026 -0.44736 -0.560547 1.42964e+06 
74 -0.06265 8.83438e-05 861.87 273.206 5.02615 5.02557 -0.3291 -0.362577 1.42926e+06 
75 -0.06255 8.83438e-05 861.869 273.207 5.02618 5.02572 -0.333554 -0.442979 1.42934e+06 
76 -0.06245 8.83438e-05 861.867 273.206 5.02616 5.02568 -0.355988 -0.469251 1.42936e+06 
77 -0.06235 8.83443e-05 861.867 273.21 5.02626 5.02581 -0.36678 -0.503356 1.42947e+06 
78 -0.06225 8.83442e-05 861.867 273.208 5.02621 5.02571 -0.337931 -0.432298 1.42934e+06 
64 -0.06365 8.83447e-05 861.863 273.214 5.02636 5.02617 -0.514111 -0.831042 1.4296e+06 
79 -0.06215 8.8344e-05 861.872 273.202 5.0261 5.02543 -0.271453 -0.328579 1.42913e+06 
80 -0.06205 8.83436e-05 861.87 273.201 5.02606 5.02536 -0.217398 -0.336546 1.42904e+06 
81 -0.06195 8.83438e-05 861.872 273.203 5.0261 5.02543 -0.268309 -0.417929 1.42918e+06 
82 -0.06185 8.83433e-05 861.874 273.202 5.02605 5.02535 -0.213614 -0.323197 1.42911e+06 
83 -0.06175 8.83431e-05 861.876 273.195 5.02592 5.02501 -0.122772 -0.169755 1.42889e+06 
84 -0.06165 8.83437e-05 861.873 273.202 5.02608 5.02541 -0.21988 -0.345278 1.42917e+06 
85 -0.06155 8.83446e-05 861.867 273.207 5.02622 5.02577 -0.357182 -0.520469 1.42949e+06 
86 -0.06145 8.83428e-05 861.879 273.19 5.0258 5.02486 -0.0101976 0.0988577 1.42866e+06 
87 -0.06135 8.83437e-05 861.873 273.194 5.02592 5.02518 -0.0865966 0.0104239 1.42889e+06 
88 -0.06125 8.83437e-05 861.877 273.188 5.02583 5.025 0.0417178 0.202464 1.42862e+06 
89 -0.06115 8.83438e-05 861.87 273.194 5.02594 5.02533 -0.0793873 0.0309128 1.4289e+06 
90 -0.06105 8.83442e-05 861.868 273.2 5.02607 5.02556 -0.206228 -0.217994 1.42916e+06 
91 -0.06095 8.83437e-05 861.869 273.196 5.02597 5.02527 -0.0923521 -0.111763 1.42893e+06 
92 -0.06085 8.83436e-05 861.874 273.193 5.02591 5.02505 -0.0518535 0.00185441 1.42881e+06 
93 -0.06075 8.83445e-05 861.868 273.202 5.02613 5.02561 -0.211064 -0.279495 1.4292e+06 
94 -0.06065 8.83436e-05 861.876 273.193 5.02591 5.02513 -0.0356705 0.045591 1.42885e+06 
95 -0.06055 8.83431e-05 861.873 273.193 5.02588 5.0251 -0.0356264 0.0613599 1.42881e+06 
96 -0.06045 8.83434e-05 861.877 273.193 5.02589 5.02499 -0.00750591 0.141587 1.42877e+06 
97 -0.06035 8.83434e-05 861.876 273.193 5.02589 5.02501 -0.022062 0.0564444 1.4288e+06 
98 -0.06025 8.83436e-05 861.87 273.197 5.02597 5.02517 -0.152697 -0.150204 1.42904e+06 
99 -0.06015 8.83434e-05 861.87 273.201 5.02604 5.02533 -0.152323 -0.238905 1.42912e+06 
100 -0.06005 8.83438e-05 861.874 273.193 5.02592 5.0252 -0.0292802 -0.0693522 1.42887e+06 
101 -0.05995 8.83428e-05 861.874 273.193 5.02587 5.02503 -0.0360014 -0.126336 1.42888e+06 
102 -0.05985 8.83435e-05 861.872 273.196 5.02595 5.02526 -0.0783374 -0.206873 1.429e+06 
103 -0.05975 8.83444e-05 861.867 273.202 5.02611 5.02572 -0.214529 -0.490112 1.42937e+06 
104 -0.05965 8.83436e-05 861.871 273.195 5.02594 5.02525 -0.0708397 -0.185106 1.42906e+06 
105 -0.05955 8.83436e-05 861.87 273.201 5.02605 5.0255 -0.150899 -0.316564 1.42925e+06 
106 -0.05945 8.83446e-05 861.865 273.202 5.02613 5.02583 -0.224589 -0.497181 1.42945e+06 
107 -0.05935 8.83447e-05 861.864 273.204 5.02618 5.02593 -0.26124 -0.492593 1.42956e+06 
108 -0.05925 8.83434e-05 861.873 273.196 5.02595 5.02529 -0.132776 -0.109545 1.42915e+06 
109 -0.05915 8.83431e-05 861.88 273.19 5.02583 5.02484 0.0287836 0.236968 1.4288e+06 
110 -0.05905 8.83432e-05 861.874 273.194 5.0259 5.02511 -0.0662341 0.0430362 1.42901e+06 
111 -0.05895 8.83433e-05 861.878 273.188 5.0258 5.02485 0.0181371 0.163032 1.42881e+06 
112 -0.05885 8.83424e-05 861.88 273.191 5.02581 5.02486 -0.0133806 0.114929 1.4289e+06 
113 -0.05875 8.83431e-05 861.877 273.192 5.02586 5.02502 -0.0944169 0.0175627 1.42902e+06 
114 -0.05865 8.83433e-05 861.873 273.196 5.02595 5.02522 -0.143683 -0.108376 1.42921e+06 
115 -0.05855 8.83429e-05 861.879 273.194 5.02589 5.02498 -0.0787616 0.056408 1.42901e+06 
116 -0.05845 8.83435e-05 861.87 273.2 5.02603 5.02555 -0.25483 -0.307084 1.42944e+06 
117 -0.05835 8.83428e-05 861.873 273.197 5.02593 5.02531 -0.166616 -0.17014 1.42922e+06 
118 -0.05825 8.83431e-05 861.876 273.198 5.02596 5.02526 -0.177927 -0.177831 1.42927e+06 
119 -0.05815 8.83431e-05 861.872 273.198 5.02598 5.02535 -0.203229 -0.262958 1.4293e+06 
120 -0.05805 8.83435e-05 861.873 273.202 5.02606 5.02553 -0.317234 -0.433366 1.42954e+06 
121 -0.05795 8.83438e-05 861.873 273.197 5.02599 5.02539 -0.193653 -0.286454 1.42928e+06 
122 -0.05785 8.83433e-05 861.87 273.202 5.02606 5.02569 -0.277307 -0.451829 1.42953e+06 
123 -0.05775 8.83436e-05 861.872 273.197 5.02598 5.02554 -0.196776 -0.341228 1.42934e+06 
124 -0.05765 8.83435e-05 861.872 273.197 5.02597 5.02553 -0.162747 -0.305305 1.42931e+06 
125 -0.05755 8.83433e-05 861.87 273.195 5.02592 5.02538 -0.111943 -0.197704 1.42923e+06 
137 -0.05635 8.83441e-05 861.868 273.202 5.0261 5.02595 -0.322963 -0.633549 1.42974e+06 
129 -0.05715 8.83437e-05 861.868 273.2 5.02605 5.0258 -0.294433 -0.542009 1.42961e+06 
130 -0.05705 8.83438e-05 861.864 273.203 5.0261 5.02594 -0.26827 -0.455959 1.42963e+06 
131 -0.05695 8.8345e-05 861.86 273.207 5.02625 5.02623 -0.366481 -0.629386 1.4299e+06 
132 -0.05685 8.83448e-05 861.857 273.212 5.02633 5.02652 -0.460851 -0.878203 1.4301e+06 
133 -0.05675 8.83443e-05 861.862 273.204 5.02614 5.02624 -0.31969 -0.643202 1.42983e+06 
134 -0.05665 8.83439e-05 861.863 273.205 5.02615 5.02612 -0.319418 -0.606194 1.42975e+06 
135 -0.05655 8.83446e-05 861.86 273.212 5.02631 5.02639 -0.443749 -0.777279 1.43006e+06 
136 -0.05645 8.83445e-05 861.862 273.207 5.02622 5.02617 -0.41301 -0.732315 1.42995e+06 
138 -0.05625 8.83432e-05 861.875 273.191 5.02585 5.02528 -0.100624 -0.155005 1.42924e+06 
139 -0.05615 8.83429e-05 861.876 273.192 5.02585 5.02526 -0.122994 -0.121665 1.42928e+06 
140 -0.05605 8.83429e-05 861.879 273.187 5.02576 5.02511 -0.0207054 0.0389495 1.42908e+06 
141 -0.05595 8.83435e-05 861.875 273.191 5.02587 5.02532 -0.0663105 -0.0977596 1.42926e+06 
126 -0.05745 8.8343e-05 861.877 273.19 5.02581 5.02502 -0.0543315 -0.0190483 1.42897e+06 
127 -0.05735 8.83431e-05 861.87 273.199 5.02598 5.02558 -0.256959 -0.4675 1.4295e+06 
128 -0.05725 8.83431e-05 861.872 273.196 5.02593 5.02548 -0.171832 -0.317714 1.42929e+06 
142 -0.05585 8.83436e-05 861.867 273.199 5.02602 5.02586 -0.26167 -0.504191 1.42969e+06 
143 -0.05575 8.8343e-05 861.874 273.194 5.02589 5.0255 -0.126623 -0.227156 1.42935e+06 
144 -0.05565 8.83429e-05 861.877 273.189 5.02579 5.02531 -0.0922074 -0.0624904 1.42919e+06 
145 -0.05555 8.83426e-05 861.878 273.193 5.02585 5.02531 -0.145381 -0.086395 1.42935e+06 
146 -0.05545 8.83426e-05 861.877 273.193 5.02584 5.02534 -0.124259 -0.10367 1.42931e+06 
147 -0.05535 8.83427e-05 861.883 273.182 5.02566 5.02476 0.0620124 0.168667 1.42887e+06 
148 -0.05525 8.83425e-05 861.883 273.185 5.02569 5.02505 -0.0199947 0.0622759 1.42911e+06 
149 -0.05515 8.83426e-05 861.87 273.195 5.02589 5.02579 -0.1885 -0.363839 1.42963e+06 
150 -0.05505 8.83439e-05 861.872 273.196 5.02598 5.02588 -0.209739 -0.359023 1.42972e+06 
151 -0.05495 8.83432e-05 861.876 273.189 5.02581 5.02538 -0.034228 -0.0309435 1.4293e+06 
152 -0.05485 8.83431e-05 861.879 273.181 5.02565 5.02505 0.0768622 0.141641 1.42901e+06 
153 -0.05475 8.83429e-05 861.881 273.182 5.02566 5.02509 0.0765151 0.182772 1.42903e+06 
154 -0.05465 8.83431e-05 861.874 273.188 5.02579 5.02538 -0.0513477 -0.0203801 1.42934e+06 
155 -0.05455 8.83437e-05 861.875 273.19 5.02585 5.02555 -0.0994365 -0.142973 1.42951e+06 
156 -0.05445 8.83437e-05 861.87 273.192 5.0259 5.02568 -0.0928997 -0.204943 1.42953e+06 
157 -0.05435 8.8344e-05 861.866 273.195 5.02596 5.02587 -0.196788 -0.377439 1.4297e+06 
158 -0.05425 8.83443e-05 861.863 273.202 5.02611 5.02635 -0.314453 -0.659805 1.43009e+06 
159 -0.05415 8.83434e-05 861.869 273.195 5.02593 5.02574 -0.158107 -0.387368 1.4296e+06 
160 -0.05405 8.83427e-05 861.873 273.188 5.02576 5.02533 -0.0623959 -0.19892 1.42931e+06 
161 -0.05395 8.83432e-05 861.876 273.188 5.02579 5.02534 -0.0678888 -0.189389 1.42927e+06 
162 -0.05385 8.83419e-05 861.88 273.182 5.0256 5.02496 0.0588467 0.012009 1.42894e+06 
163 -0.05375 8.83424e-05 861.883 273.178 5.02556 5.02477 0.147948 0.130315 1.42878e+06 
164 -0.05365 8.83426e-05 861.878 273.185 5.0257 5.02514 -0.0343993 -0.144444 1.42916e+06 
165 -0.05355 8.83428e-05 861.877 273.185 5.02571 5.0251 -0.00564655 -0.148138 1.42915e+06 
166 -0.05345 8.83424e-05 861.882 273.184 5.02567 5.02482 0.0121289 0.00233888 1.42903e+06 
167 -0.05335 8.83428e-05 861.879 273.188 5.02577 5.02502 -0.0424797 -0.0631066 1.42915e+06 
168 -0.05325 8.83424e-05 861.881 273.185 5.02569 5.02482 -0.0199476 -0.0241579 1.42906e+06 
169 -0.05315 8.83426e-05 861.879 273.187 5.02573 5.02507 -0.0399644 -0.143379 1.42913e+06 
170 -0.05305 8.83427e-05 861.878 273.186 5.02572 5.02506 0.00855669 -0.136462 1.42911e+06 
171 -0.05295 8.83424e-05 861.878 273.183 5.02566 5.02497 0.0596044 -0.0951527 1.42904e+06 
172 -0.05285 8.83423e-05 861.884 273.181 5.02561 5.02483 0.0832598 -0.048827 1.42892e+06 
173 -0.05275 8.83424e-05 861.883 273.18 5.02561 5.02476 0.131937 0.0748778 1.42885e+06 
174 -0.05265 8.83415e-05 861.884 273.172 5.02541 5.02448 0.236072 0.207328 1.42858e+06 
175 -0.05255 8.83435e-05 861.878 273.184 5.02574 5.02522 0.0472549 -0.190304 1.4291e+06 
176 -0.05245 8.83429e-05 861.878 273.184 5.02571 5.02504 0.0436841 -0.165357 1.42904e+06 
177 -0.05235 8.83421e-05 861.884 273.178 5.02555 5.02469 0.141276 -0.00190253 1.42878e+06 
178 -0.05225 8.8342e-05 861.88 273.179 5.02556 5.02469 0.0904734 0.0098077 1.42888e+06 
179 -0.05215 8.83436e-05 861.878 273.188 5.02582 5.02532 -0.021397 -0.292082 1.42931e+06 
180 -0.05205 8.83436e-05 861.872 273.19 5.02585 5.02542 -0.114736 -0.403219 1.42946e+06 
181 -0.05195 8.83427e-05 861.873 273.191 5.02582 5.02524 -0.120456 -0.335844 1.42942e+06 
182 -0.05185 8.83433e-05 861.873 273.19 5.02584 5.02547 -0.109301 -0.426396 1.42949e+06 
183 -0.05175 8.83434e-05 861.871 273.189 5.02582 5.02549 -0.0439421 -0.410127 1.4294e+06 
184 -0.05165 8.83436e-05 861.871 273.189 5.02584 5.02545 -0.0609275 -0.409278 1.42946e+06 
185 -0.05155 8.83431e-05 861.876 273.189 5.0258 5.02538 -0.0903091 -0.429334 1.42946e+06 
186 -0.05145 8.83426e-05 861.88 273.183 5.02566 5.02485 0.0692977 -0.0836221 1.42903e+06 
187 -0.05135 8.83426e-05 861.883 273.177 5.02556 5.02481 0.123122 -0.0041187 1.42895e+06 
188 -0.05125 8.83434e-05 861.874 273.187 5.02577 5.02524 -0.0832675 -0.338136 1.42938e+06 
193 -0.05075 8.83418e-05 861.883 273.179 5.02555 5.02481 0.0968463 -0.0271442 1.42903e+06 
194 -0.05065 8.83427e-05 861.881 273.18 5.02561 5.02487 0.121765 0.0307734 1.42901e+06 
195 -0.05055 8.83425e-05 861.874 273.185 5.0257 5.02529 -0.00521603 -0.150795 1.42937e+06 
196 -0.05045 8.8344e-05 861.867 273.193 5.02593 5.02588 -0.182546 -0.575705 1.42979e+06 
197 -0.05035 8.83432e-05 861.872 273.188 5.0258 5.02554 -0.0739084 -0.325254 1.42955e+06 
198 -0.05025 8.83432e-05 861.875 273.183 5.0257 5.0253 0.0397466 -0.19905 1.42934e+06 
199 -0.05015 8.8343e-05 861.868 273.184 5.02571 5.02563 0.0239711 -0.331627 1.42944e+06 
200 -0.05005 8.83442e-05 861.863 273.192 5.02593 5.026 -0.141123 -0.498039 1.42983e+06 
201 -0.04995 8.83434e-05 861.868 273.189 5.02582 5.02567 -0.0684989 -0.293779 1.42964e+06 
202 -0.04985 8.83422e-05 861.87 273.186 5.0257 5.02526 0.00343654 -0.12318 1.42939e+06 
203 -0.04975 8.83432e-05 861.87 273.189 5.02581 5.02551 -0.0483984 -0.255557 1.42959e+06 
189 -0.05115 8.83427e-05 861.877 273.191 5.02583 5.02528 -0.0853114 -0.397156 1.42946e+06 
190 -0.05105 8.83425e-05 861.878 273.184 5.02567 5.02507 -0.0267046 -0.256498 1.42927e+06 
191 -0.05095 8.83427e-05 861.88 273.183 5.02567 5.02517 0.0247323 -0.228029 1.42929e+06 
192 -0.05085 8.83419e-05 861.88 273.181 5.02559 5.02481 0.110167 -0.0243955 1.42901e+06 
206 -0.04945 8.83427e-05 861.875 273.183 5.02567 5.02529 0.0863116 -0.141189 1.42934e+06 
204 -0.04965 8.83426e-05 861.874 273.182 5.02565 5.02519 0.0576008 -0.0789622 1.42933e+06 
205 -0.04955 8.83429e-05 861.874 273.183 5.02568 5.02521 0.0664234 -0.152353 1.42932e+06 
207 -0.04935 8.8343e-05 861.866 273.189 5.0258 5.02553 -0.056299 -0.350132 1.42964e+06 
208 -0.04925 8.83424e-05 861.879 273.178 5.02557 5.025 0.137694 0.0388157 1.42921e+06 
209 -0.04915 8.83427e-05 861.875 273.185 5.02571 5.02522 0.0751212 -0.139877 1.4294e+06 
210 -0.04905 8.83424e-05 861.876 273.18 5.0256 5.02507 0.131525 -0.00847545 1.42924e+06 
211 -0.04895 8.8343e-05 861.87 273.191 5.02583 5.02566 -0.0862142 -0.389083 1.42976e+06 
212 -0.04885 8.83428e-05 861.871 273.185 5.02571 5.02541 0.0513245 -0.176415 1.42946e+06 
213 -0.04875 8.83427e-05 861.873 273.181 5.02563 5.0254 0.0853321 -0.154018 1.42938e+06 
214 -0.04865 8.83427e-05 861.878 273.177 5.02556 5.02511 0.208444 0.0831628 1.42914e+06 
215 -0.04855 8.83434e-05 861.865 273.185 5.02574 5.02587 0.0221685 -0.36019 1.42971e+06 
216 -0.04845 8.83435e-05 861.872 273.182 5.02569 5.02562 0.124681 -0.0733063 1.42944e+06 
217 -0.04835 8.83426e-05 861.869 273.182 5.02564 5.02558 0.0611282 -0.142717 1.42951e+06 
218 -0.04825 8.8343e-05 861.872 273.183 5.02569 5.02552 0.0763119 -0.101655 1.42948e+06 
219 -0.04815 8.83424e-05 861.878 273.174 5.0255 5.02497 0.196467 0.240767 1.4291e+06 
220 -0.04805 8.83434e-05 861.872 273.186 5.02576 5.02553 0.027705 -0.163034 1.42958e+06 
221 -0.04795 8.83414e-05 861.884 273.169 5.02533 5.02461 0.294394 0.424754 1.42882e+06 
222 -0.04785 8.83426e-05 861.882 273.172 5.02546 5.02467 0.22124 0.403595 1.42889e+06 
223 -0.04775 8.83432e-05 861.868 273.191 5.02584 5.02568 -0.0938035 -0.254865 1.42973e+06 
224 -0.04765 8.83432e-05 861.871 273.181 5.02565 5.02531 0.0830358 0.0418018 1.42934e+06 
225 -0.04755 8.83426e-05 861.875 273.183 5.02567 5.02516 0.0582443 0.111436 1.42936e+06 
226 -0.04745 8.83425e-05 861.876 273.182 5.02565 5.02517 0.0755581 0.113658 1.42929e+06 
227 -0.04735 8.83417e-05 861.881 273.175 5.02548 5.02469 0.23168 0.44473 1.42889e+06 
228 -0.04725 8.83419e-05 861.884 273.171 5.02541 5.02455 0.237082 0.48507 1.4288e+06 
229 -0.04715 8.83417e-05 861.883 273.175 5.02547 5.02458 0.274825 0.512311 1.42886e+06 
230 -0.04705 8.83414e-05 861.881 273.172 5.0254 5.02453 0.247872 0.390357 1.42882e+06 
231 -0.04695 8.8343e-05 861.875 273.184 5.02571 5.0251 0.0687491 0.0726509 1.4293e+06 
232 -0.04685 8.83426e-05 861.874 273.183 5.02566 5.02513 0.127147 0.139197 1.42922e+06 
233 -0.04675 8.83419e-05 861.88 273.178 5.02553 5.02481 0.202911 0.344231 1.42901e+06 
234 -0.04665 8.83426e-05 861.873 273.186 5.02572 5.02518 -0.000166567 -0.00048951 1.4294e+06 
235 -0.04655 8.83432e-05 861.871 273.19 5.02582 5.02531 -0.0190924 -0.0563383 1.42955e+06 
236 -0.04645 8.83429e-05 861.875 273.182 5.02566 5.02508 0.102077 0.217483 1.42922e+06 
237 -0.04635 8.83424e-05 861.875 273.182 5.02564 5.02504 0.12299 0.2224 1.42922e+06 
238 -0.04625 8.83427e-05 861.877 273.18 5.02562 5.02494 0.154225 0.253209 1.42911e+06 
239 -0.04615 8.83425e-05 861.873 273.18 5.0256 5.02507 0.161066 0.196371 1.42913e+06 
240 -0.04605 8.83431e-05 861.871 273.185 5.02573 5.02527 0.0988781 0.0374221 1.42932e+06 
241 -0.04595 8.8342e-05 861.88 273.175 5.02549 5.02477 0.27061 0.462113 1.42892e+06 
242 -0.04585 8.8342e-05 861.88 273.178 5.02553 5.02483 0.216098 0.345549 1.42899e+06 
243 -0.04575 8.83438e-05 861.868 273.191 5.02588 5.02566 -0.0161154 -0.180015 1.42967e+06 
244 -0.04565 8.83434e-05 861.874 273.182 5.02569 5.02537 0.124544 0.00902493 1.42931e+06 
245 -0.04555 8.83434e-05 861.867 273.191 5.02586 5.02556 -0.0698654 -0.250626 1.42962e+06 
246 -0.04545 8.83435e-05 861.87 273.192 5.02588 5.02566 -0.0625889 -0.217274 1.42972e+06 
247 -0.04535 8.8343e-05 861.875 273.182 5.02568 5.02515 0.0723778 0.071877 1.42933e+06 
248 -0.04525 8.83428e-05 861.875 273.184 5.0257 5.02509 0.0628891 0.086396 1.42924e+06 
249 -0.04515 8.83424e-05 861.876 273.18 5.0256 5.02488 0.150726 0.276929 1.42904e+06 
250 -0.04505 8.83423e-05 861.881 273.177 5.02553 5.02467 0.226523 0.483388 1.42887e+06 
257 -0.04435 8.83435e-05 861.873 273.187 5.0258 5.02523 -0.0618684 -0.0578047 1.42949e+06 
258 -0.04425 8.83422e-05 861.882 273.177 5.02553 5.02455 0.192885 0.449534 1.42889e+06 
259 -0.04415 8.83432e-05 861.873 273.184 5.02572 5.02507 -0.0198841 0.00353125 1.42938e+06 
260 -0.04405 8.83419e-05 861.884 273.18 5.02556 5.02455 0.141499 0.282242 1.42898e+06 
261 -0.04395 8.83438e-05 861.874 273.189 5.02584 5.02535 -0.0275877 -0.125187 1.42949e+06 
262 -0.04385 8.83428e-05 861.874 273.186 5.02573 5.02521 -0.000841868 -0.0835723 1.4294e+06 
263 -0.04375 8.83425e-05 861.875 273.184 5.02568 5.02515 0.0221452 -0.0421191 1.42933e+06 
264 -0.04365 8.83425e-05 861.878 273.181 5.02563 5.02484 0.0894338 0.188828 1.42909e+06 
265 -0.04355 8.83424e-05 861.88 273.185 5.02569 5.02493 0.0746444 0.0499877 1.42918e+06 
266 -0.04345 8.83425e-05 861.871 273.188 5.02576 5.02533 -0.0937153 -0.288062 1.42953e+06 
251 -0.04495 8.83422e-05 861.883 273.172 5.02545 5.02442 0.309957 0.67055 1.4286e+06 
252 -0.04485 8.83435e-05 861.867 273.193 5.0259 5.02551 -0.090954 -0.159751 1.42963e+06 
253 -0.04475 8.83434e-05 861.872 273.189 5.02583 5.0253 -0.0578036 -0.0909859 1.42947e+06 
254 -0.04465 8.83433e-05 861.872 273.189 5.02581 5.02526 0.00520483 0.00727464 1.4294e+06 
255 -0.04455 8.83432e-05 861.873 273.188 5.02578 5.02516 0.0239317 0.124955 1.42933e+06 
256 -0.04445 8.83433e-05 861.871 273.187 5.02578 5.02513 -0.0172947 0.027016 1.4294e+06 
274 -0.04265 8.83429e-05 861.878 273.185 5.02573 5.02494 -0.0268608 -0.0951063 1.42931e+06 
267 -0.04335 8.8342e-05 861.878 273.188 5.02573 5.02496 -0.0625374 -0.102617 1.42935e+06 
268 -0.04325 8.83422e-05 861.88 273.188 5.02574 5.0249 -0.0690673 -0.078978 1.42938e+06 
269 -0.04315 8.8342e-05 861.878 273.185 5.02567 5.02483 0.0115369 -0.0391414 1.42918e+06 
270 -0.04305 8.83414e-05 861.886 273.179 5.02553 5.02455 0.0677406 0.0504341 1.42899e+06 
271 -0.04295 8.83417e-05 861.885 273.179 5.02555 5.02447 0.0598943 0.137801 1.42897e+06 
272 -0.04285 8.83426e-05 861.878 273.187 5.02574 5.02503 -0.0186078 -0.0971599 1.42932e+06 
273 -0.04275 8.83422e-05 861.876 273.188 5.02573 5.02511 -0.041358 -0.160985 1.42938e+06 
275 -0.04255 8.83423e-05 861.878 273.187 5.02572 5.02506 -0.0300883 -0.0983435 1.42931e+06 
276 -0.04245 8.83422e-05 861.879 273.183 5.02565 5.02478 0.059925 0.096015 1.42909e+06 
277 -0.04235 8.83424e-05 861.878 273.182 5.02564 5.02495 0.0171265 -0.0219814 1.42917e+06 
278 -0.04225 8.83421e-05 861.878 273.186 5.02569 5.02504 0.0109261 -0.0469219 1.42921e+06 
279 -0.04215 8.83432e-05 861.873 273.188 5.02579 5.02533 -0.0624471 -0.247948 1.42944e+06 
280 -0.04205 8.83429e-05 861.872 273.192 5.02584 5.02539 -0.15363 -0.378232 1.42958e+06 
281 -0.04195 8.83427e-05 861.874 273.194 5.02586 5.02537 -0.15028 -0.33755 1.42958e+06 
282 -0.04185 8.83431e-05 861.873 273.192 5.02586 5.02534 -0.164737 -0.409258 1.42962e+06 
283 -0.04175 8.83419e-05 861.88 273.184 5.02565 5.025 0.00365296 -0.129489 1.42926e+06 
284 -0.04165 8.83428e-05 861.877 273.184 5.0257 5.02517 -0.0381057 -0.140498 1.42937e+06 
285 -0.04155 8.83412e-05 861.883 273.177 5.02548 5.02467 0.16118 0.202747 1.42888e+06 
286 -0.04145 8.83428e-05 861.877 273.187 5.02574 5.02536 -0.0196652 -0.120081 1.42936e+06 
287 -0.04135 8.83419e-05 861.876 273.185 5.02566 5.02517 -0.06861 -0.122146 1.42936e+06 
288 -0.04125 8.83424e-05 861.878 273.186 5.02572 5.02517 -0.0842346 -0.122263 1.42935e+06 
289 -0.04115 8.83419e-05 861.881 273.181 5.02559 5.02481 0.0310125 0.126392 1.42906e+06 
290 -0.04105 8.83423e-05 861.877 273.188 5.02573 5.02521 -0.0189498 -0.0734904 1.42934e+06 
291 -0.04095 8.83421e-05 861.876 273.181 5.0256 5.02519 0.0455536 -0.00281268 1.42923e+06 
292 -0.04085 8.83423e-05 861.877 273.186 5.02569 5.02528 0.0014829 -0.0401264 1.42937e+06 
293 -0.04075 8.83426e-05 861.869 273.195 5.02589 5.02588 -0.205832 -0.420336 1.42985e+06 
294 -0.04065 8.83428e-05 861.869 273.189 5.02578 5.02562 -0.143511 -0.357507 1.42968e+06 
295 -0.04055 8.83421e-05 861.869 273.195 5.02586 5.02566 -0.204398 -0.371023 1.42982e+06 
296 -0.04045 8.83422e-05 861.88 273.185 5.02568 5.02522 -0.00326423 -0.0181998 1.4293e+06 
297 -0.04035 8.83427e-05 861.873 273.19 5.0258 5.02549 -0.14479 -0.31411 1.42966e+06 
298 -0.04025 8.83421e-05 861.874 273.189 5.02575 5.02531 -0.111682 -0.249171 1.42957e+06 
299 -0.04015 8.83418e-05 861.88 273.184 5.02563 5.02512 0.0484009 0.00798361 1.42927e+06 
300 -0.04005 8.83417e-05 861.881 273.18 5.02555 5.02494 0.0618879 0.0452302 1.42919e+06 
301 -0.03995 8.83412e-05 861.883 273.18 5.02553 5.02483 0.0824948 0.151603 1.42911e+06 
302 -0.03985 8.8342e-05 861.872 273.188 5.02572 5.02538 -0.0421541 -0.211242 1.42945e+06 
303 -0.03975 8.83431e-05 861.869 273.193 5.02588 5.02573 -0.140826 -0.491403 1.42977e+06 
304 -0.03965 8.83418e-05 861.875 273.185 5.02566 5.02521 0.0056594 -0.219351 1.42939e+06 
305 -0.03955 8.83421e-05 861.878 273.18 5.02557 5.02509 0.0658246 -0.081683 1.42923e+06 
306 -0.03945 8.83428e-05 861.868 273.193 5.02586 5.02573 -0.186504 -0.518016 1.42982e+06 
307 -0.03935 8.83433e-05 861.867 273.194 5.0259 5.02602 -0.172321 -0.611537 1.42991e+06 
308 -0.03925 8.83419e-05 861.874 273.182 5.0256 5.02521 0.0679758 -0.111434 1.42931e+06 
309 -0.03915 8.83422e-05 861.88 273.178 5.02556 5.02516 0.110839 -0.0195891 1.42918e+06 
310 -0.03905 8.83423e-05 861.874 273.182 5.02563 5.02538 0.099183 -0.0592154 1.42933e+06 
311 -0.03895 8.83419e-05 861.879 273.173 5.02544 5.02506 0.260921 0.143543 1.42895e+06 
312 -0.03885 8.83418e-05 861.881 273.173 5.02543 5.02494 0.190265 0.142729 1.42896e+06 
313 -0.03875 8.83426e-05 861.877 273.181 5.02563 5.02531 0.0882285 -0.121984 1.42923e+06 
321 -0.03795 8.83415e-05 861.877 273.177 5.0255 5.0252 0.0811024 -0.030897 1.42916e+06 
322 -0.03785 8.83425e-05 861.877 273.179 5.02558 5.02541 0.105998 -0.0595336 1.42921e+06 
323 -0.03775 8.83423e-05 861.869 273.188 5.02573 5.02584 -0.0817343 -0.366696 1.42965e+06 
324 -0.03765 8.83429e-05 861.873 273.184 5.02571 5.0258 -0.0413065 -0.3736 1.42963e+06 
325 -0.03755 8.8343e-05 861.868 273.19 5.02581 5.02607 -0.149165 -0.606199 1.4299e+06 
326 -0.03745 8.83429e-05 861.875 273.187 5.02576 5.02573 -0.0482763 -0.36864 1.42964e+06 
327 -0.03735 8.83426e-05 861.87 273.187 5.02574 5.02581 -0.0964276 -0.433174 1.42971e+06 
328 -0.03725 8.83429e-05 861.869 273.189 5.0258 5.02606 -0.135991 -0.555348 1.42983e+06 
314 -0.03865 8.83428e-05 861.869 273.188 5.02576 5.02578 -0.0444958 -0.436027 1.42958e+06 
315 -0.03855 8.83423e-05 861.878 273.18 5.0256 5.02521 0.0956149 -0.0946323 1.42917e+06 
316 -0.03845 8.83421e-05 861.877 273.182 5.02561 5.02532 0.0113779 -0.182071 1.42935e+06 
317 -0.03835 8.83422e-05 861.878 273.182 5.02562 5.02519 0.0258068 -0.106706 1.42924e+06 
318 -0.03825 8.83419e-05 861.874 273.189 5.02574 5.02548 -0.077222 -0.281133 1.42954e+06 
319 -0.03815 8.83427e-05 861.877 273.18 5.02562 5.0253 0.0313476 -0.094454 1.42927e+06 
320 -0.03805 8.83424e-05 861.877 273.182 5.02564 5.02543 0.0372233 -0.100168 1.42931e+06 
342 -0.03585 8.83434e-05 861.872 273.192 5.02588 5.02588 -0.191654 -0.312496 1.42962e+06 
329 -0.03715 8.8343e-05 861.87 273.19 5.02581 5.026 -0.118154 -0.476338 1.42981e+06 
330 -0.03705 8.83434e-05 861.866 273.193 5.0259 5.02637 -0.215494 -0.602137 1.43001e+06 
331 -0.03695 8.83431e-05 861.863 273.194 5.02589 5.02631 -0.238659 -0.622219 1.42996e+06 
332 -0.03685 8.83436e-05 861.863 273.197 5.02599 5.02655 -0.267273 -0.711946 1.43008e+06 
333 -0.03675 8.83431e-05 861.872 273.187 5.02577 5.02584 -0.0503063 -0.210711 1.42951e+06 
334 -0.03665 8.83417e-05 861.878 273.179 5.02554 5.02529 0.0595357 -0.0255318 1.42909e+06 