ITEM: TIMESTEP
20000
ITEM: NUMBER OF CELLS
1000
ITEM: BOX BOUNDS os pp pp
-0.07 0.03
-0.001 0.001
-0.001 0.001
ITEM: CELLS id f_1[1] f_1[2] f_1[3] f_1[4] f_1[5] f_1[6] f_1[7] f_1[8] f_1[9] 
1 -0.06995 8.83371e-05 615.67 273.135 5.02448 5.02315 -0.435377 -0.923599 1.42747e+06 
2 -0.06985 8.83379e-05 615.659 273.149 5.02477 5.02374 -0.583878 -1.14688 1.42788e+06 
3 -0.06975 8.83373e-05 615.664 273.142 5.02461 5.02351 -0.496485 -1.03011 1.42774e+06 
4 -0.06965 8.83409e-05 615.643 273.16 5.02516 5.02471 -0.683506 -1.2985 1.42829e+06 
5 -0.06955 8.83385e-05 615.657 273.141 5.02467 5.02395 -0.437728 -0.955878 1.42784e+06 
6 -0.06945 8.83394e-05 615.654 273.15 5.02487 5.02416 -0.533617 -0.96256 1.42803e+06 
7 -0.06935 8.83413e-05 615.64 273.16 5.02516 5.02481 -0.673819 -1.20101 1.42836e+06 
8 -0.06925 8.83421e-05 615.636 273.167 5.02534 5.02511 -0.758196 -1.30366 1.42855e+06 
9 -0.06915 8.83385e-05 615.658 273.14 5.02465 5.02386 -0.422828 -0.988201 1.42777e+06 
10 -0.06905 8.83403e-05 615.645 273.154 5.02499 5.02443 -0.528904 -1.12055 1.42811e+06 
11 -0.06895 8.83405e-05 615.652 273.149 5.02492 5.02433 -0.514774 -1.1677 1.42803e+06 
12 -0.06885 8.83404e-05 615.648 273.15 5.02493 5.02427 -0.503219 -1.10003 1.42801e+06 
13 -0.06875 8.83365e-05 615.677 273.125 5.02426 5.02282 -0.24683 -0.635122 1.42731e+06 
14 -0.06865 8.83407e-05 615.648 273.145 5.02485 5.02437 -0.439786 -1.05335 1.42802e+06 
15 -0.06855 8.834e-05 615.652 273.141 5.02475 5.02405 -0.373411 -0.900436 1.42788e+06 
16 -0.06845 8.83419e-05 615.641 273.156 5.02513 5.0248 -0.565158 -1.23564 1.42834e+06 
17 -0.06835 8.83402e-05 615.649 273.147 5.02487 5.02425 -0.48324 -1.07318 1.42809e+06 
18 -0.06825 8.83384e-05 615.666 273.142 5.02468 5.02342 -0.458006 -0.750311 1.42779e+06 
19 -0.06815 8.83404e-05 615.645 273.155 5.02503 5.02453 -0.576418 -1.11362 1.42825e+06 
20 -0.06805 8.83365e-05 615.674 273.129 5.02432 5.02303 -0.262491 -0.503865 1.42748e+06 
21 -0.06795 8.83372e-05 615.668 273.132 5.02443 5.0232 -0.305302 -0.576671 1.42756e+06 
22 -0.06785 8.83356e-05 615.678 273.125 5.02419 5.02279 -0.269116 -0.523524 1.42739e+06 
23 -0.06775 8.83344e-05 615.686 273.121 5.02406 5.02221 -0.199783 -0.27204 1.4272e+06 
24 -0.06765 8.83355e-05 615.68 273.126 5.02422 5.02267 -0.242746 -0.335755 1.4274e+06 
25 -0.06755 8.83389e-05 615.653 273.15 5.02484 5.0239 -0.530385 -0.800417 1.42812e+06 
26 -0.06745 8.83382e-05 615.66 273.147 5.02475 5.02372 -0.504902 -0.694907 1.42805e+06 
27 -0.06735 8.83394e-05 615.651 273.146 5.0248 5.0241 -0.469049 -0.800877 1.42814e+06 
28 -0.06725 8.83359e-05 615.672 273.129 5.02429 5.02304 -0.262469 -0.398083 1.42757e+06 
29 -0.06715 8.83377e-05 615.661 273.137 5.02453 5.02357 -0.315851 -0.527341 1.42785e+06 
30 -0.06705 8.83376e-05 615.666 273.131 5.02442 5.02339 -0.254841 -0.419888 1.42774e+06 
31 -0.06695 8.8335e-05 615.679 273.112 5.02392 5.0225 -0.0131581 -0.132839 1.42723e+06 
32 -0.06685 8.83363e-05 615.675 273.121 5.02416 5.02286 -0.110347 -0.269082 1.4275e+06 
34 -0.06665 8.83393e-05 615.656 273.135 5.0246 5.02401 -0.232234 -0.632309 1.42807e+06 
33 -0.06675 8.83366e-05 615.669 273.12 5.02417 5.02314 -0.0474545 -0.410302 1.42758e+06 
35 -0.06655 8.83348e-05 615.686 273.104 5.02378 5.02222 0.0800538 -0.0431392 1.42718e+06 
36 -0.06645 8.83344e-05 615.685 273.104 5.02374 5.0223 0.120512 -0.073834 1.42723e+06 
37 -0.06635 8.83361e-05 615.677 273.111 5.02397 5.02292 0.0667004 -0.222751 1.42748e+06 
38 -0.06625 8.83384e-05 615.66 273.116 5.02419 5.02367 -0.00868202 -0.438437 1.42777e+06 
39 -0.06615 8.83401e-05 615.642 273.134 5.02462 5.02469 -0.175056 -0.728549 1.42829e+06 
40 -0.06605 8.83368e-05 615.669 273.124 5.02426 5.0234 -0.139932 -0.288785 1.42787e+06 
41 -0.06595 8.83391e-05 615.651 273.134 5.02456 5.02419 -0.261343 -0.536425 1.42827e+06 
42 -0.06585 8.83371e-05 615.664 273.124 5.02426 5.02347 -0.111184 -0.315912 1.42793e+06 
43 -0.06575 8.83363e-05 615.665 273.132 5.02437 5.02356 -0.271613 -0.41208 1.42812e+06 
44 -0.06565 8.83356e-05 615.672 273.124 5.02418 5.0232 -0.144857 -0.316511 1.4278e+06 
45 -0.06555 8.83354e-05 615.673 273.123 5.02416 5.02328 -0.120312 -0.272066 1.42784e+06 
46 -0.06545 8.83391e-05 615.643 273.15 5.02486 5.02477 -0.455616 -0.851914 1.42865e+06 
47 -0.06535 8.83384e-05 615.648 273.146 5.02475 5.02452 -0.427963 -0.799073 1.42852e+06 
48 -0.06525 8.83365e-05 615.664 273.138 5.0245 5.0237 -0.333182 -0.513287 1.42817e+06 
49 -0.06515 8.83385e-05 615.651 273.146 5.02476 5.02439 -0.443829 -0.721502 1.42849e+06 
50 -0.06505 8.83389e-05 615.647 273.147 5.02479 5.02462 -0.410713 -0.787289 1.42852e+06 
51 -0.06495 8.83362e-05 615.666 273.134 5.02439 5.0236 -0.225276 -0.395627 1.42802e+06 
52 -0.06485 8.83362e-05 615.666 273.13 5.02432 5.0234 -0.216852 -0.35581 1.42797e+06 
53 -0.06475 8.83358e-05 615.668 273.134 5.02438 5.02354 -0.286681 -0.411786 1.42809e+06 
54 -0.06465 8.83341e-05 615.678 273.13 5.02421 5.0229 -0.244686 -0.170803 1.4279e+06 
55 -0.06455 8.8335e-05 615.673 273.126 5.02418 5.02321 -0.174818 -0.275123 1.42792e+06 
56 -0.06445 8.83386e-05 615.651 273.154 5.0249 5.02435 -0.507021 -0.642315 1.42862e+06 
57 -0.06435 8.83373e-05 615.658 273.142 5.02461 5.02395 -0.423375 -0.567843 1.42842e+06 
58 -0.06425 8.83376e-05 615.657 273.147 5.02473 5.02413 -0.465681 -0.597268 1.42852e+06 
59 -0.06415 8.83366e-05 615.662 273.139 5.02451 5.02381 -0.315422 -0.473062 1.4282e+06 
60 -0.06405 8.83353e-05 615.671 273.128 5.02423 5.02326 -0.195942 -0.281007 1.4279e+06 
61 -0.06395 8.83367e-05 615.66 273.142 5.02458 5.0239 -0.385609 -0.518299 1.42831e+06 
62 -0.06385 8.83354e-05 615.675 273.132 5.02431 5.02309 -0.263075 -0.186332 1.4279e+06 
63 -0.06375 8.83355e-05 615.669 273.128 5.02424 5.02323 -0.159237 -0.1355 1.42788e+06 
67 -0.06335 8.83379e-05 615.659 273.14 5.0246 5.02397 -0.358404 -0.434837 1.42837e+06 
65 -0.06355 8.8338e-05 615.655 273.143 5.02467 5.02421 -0.408156 -0.506135 1.42847e+06 
66 -0.06345 8.83363e-05 615.667 273.14 5.02451 5.02354 -0.382055 -0.255208 1.42826e+06 
68 -0.06325 8.83349e-05 615.677 273.123 5.02412 5.02292 -0.178252 -0.154071 1.42783e+06 
69 -0.06315 8.83377e-05 615.661 273.136 5.02452 5.02382 -0.281429 -0.418518 1.42825e+06 
70 -0.06305 8.83386e-05 615.654 273.141 5.02467 5.02421 -0.353043 -0.481207 1.42844e+06 
71 -0.06295 8.83377e-05 615.665 273.132 5.02445 5.02368 -0.176843 -0.213626 1.42814e+06 
72 -0.06285 8.83306e-05 615.709 273.095 5.02336 5.02118 0.182368 0.437668 1.42695e+06 
73 -0.06275 8.83339e-05 615.689 273.109 5.02382 5.02223 0.0441533 0.172862 1.42745e+06 
74 -0.06265 8.83364e-05 615.67 273.124 5.02422 5.02325 -0.13545 -0.197937 1.42796e+06 
75 -0.06255 8.83372e-05 615.67 273.128 5.02434 5.02336 -0.164246 -0.191727 1.42805e+06 
76 -0.06245 8.83378e-05 615.663 273.133 5.02448 5.02367 -0.213692 -0.339855 1.4282e+06 
77 -0.06235 8.83406e-05 615.64 273.157 5.02508 5.02486 -0.495266 -0.713602 1.42888e+06 
78 -0.06225 8.83436e-05 615.622 273.165 5.02539 5.02578 -0.564728 -0.968361 1.42927e+06 
79 -0.06215 8.83401e-05 615.645 273.147 5.02486 5.02454 -0.358854 -0.62608 1.42863e+06 
80 -0.06205 8.83424e-05 615.63 273.16 5.02523 5.02543 -0.501805 -0.94286 1.42909e+06 
81 -0.06195 8.83347e-05 615.684 273.116 5.02398 5.02255 -0.0500982 0.0845038 1.42772e+06 
82 -0.06185 8.83341e-05 615.685 273.118 5.02398 5.02252 -0.0849634 0.0743521 1.42777e+06 
83 -0.06175 8.83353e-05 615.679 273.118 5.02405 5.0228 -0.0741529 -0.127721 1.42786e+06 
84 -0.06165 8.83333e-05 615.692 273.112 5.02384 5.02215 -0.011261 0.17105 1.42767e+06 
85 -0.06155 8.83361e-05 615.674 273.124 5.0242 5.02297 -0.142432 -0.107156 1.42803e+06 
86 -0.06145 8.83388e-05 615.651 273.148 5.02481 5.02423 -0.453797 -0.589812 1.42877e+06 
87 -0.06135 8.83397e-05 615.649 273.15 5.02489 5.02446 -0.426576 -0.709714 1.42883e+06 
88 -0.06125 8.83406e-05 615.644 273.151 5.02497 5.02474 -0.4232 -0.739854 1.42886e+06 
89 -0.06115 8.83398e-05 615.651 273.139 5.0247 5.02433 -0.301582 -0.601658 1.42861e+06 
90 -0.06105 8.83381e-05 615.661 273.127 5.02439 5.02375 -0.128394 -0.373202 1.42827e+06 
91 -0.06095 8.8339e-05 615.652 273.133 5.02454 5.02406 -0.209963 -0.42812 1.42842e+06 
92 -0.06085 8.8339e-05 615.651 273.144 5.02475 5.0243 -0.352128 -0.577916 1.42867e+06 
93 -0.06075 8.83391e-05 615.649 273.149 5.02485 5.02434 -0.430953 -0.642094 1.42878e+06 
94 -0.06065 8.83381e-05 615.656 273.138 5.02459 5.0239 -0.261668 -0.398907 1.42844e+06 
64 -0.06365 8.83368e-05 615.662 273.137 5.02449 5.02362 -0.315292 -0.268531 1.42815e+06 
100 -0.06005 8.83386e-05 615.656 273.13 5.02446 5.02397 -0.143287 -0.297617 1.4284e+06 
97 -0.06035 8.83365e-05 615.669 273.127 5.02428 5.02326 -0.112648 -0.109697 1.42814e+06 
98 -0.06025 8.83382e-05 615.657 273.127 5.02438 5.02378 -0.114506 -0.253064 1.42828e+06 
99 -0.06015 8.83389e-05 615.655 273.131 5.0245 5.02399 -0.122295 -0.305483 1.42833e+06 
101 -0.05995 8.83405e-05 615.645 273.14 5.02475 5.02455 -0.23409 -0.449617 1.4287e+06 
102 -0.05985 8.83394e-05 615.656 273.14 5.02468 5.02404 -0.295223 -0.354874 1.42859e+06 
103 -0.05975 8.83376e-05 615.661 273.136 5.02452 5.02363 -0.303124 -0.26986 1.42844e+06 
104 -0.05965 8.83413e-05 615.639 273.156 5.02509 5.02485 -0.501677 -0.684932 1.429e+06 
105 -0.05955 8.83377e-05 615.665 273.136 5.02452 5.02353 -0.279054 -0.283041 1.42836e+06 
106 -0.05945 8.83377e-05 615.67 273.13 5.02442 5.02345 -0.185569 -0.209305 1.42823e+06 
107 -0.05935 8.83386e-05 615.659 273.138 5.02461 5.02383 -0.311846 -0.401099 1.42848e+06 
108 -0.05925 8.83387e-05 615.662 273.137 5.0246 5.02366 -0.27146 -0.303973 1.42842e+06 
109 -0.05915 8.83419e-05 615.641 273.163 5.02527 5.02493 -0.56877 -0.732195 1.42911e+06 
110 -0.05905 8.83406e-05 615.648 273.156 5.02506 5.02448 -0.493538 -0.596152 1.42892e+06 
111 -0.05895 8.83413e-05 615.648 273.158 5.02512 5.02438 -0.542607 -0.529493 1.42891e+06 
112 -0.05885 8.83425e-05 615.637 273.161 5.02526 5.02503 -0.53884 -0.75748 1.42917e+06 
113 -0.05875 8.83385e-05 615.667 273.14 5.02465 5.02358 -0.367635 -0.32053 1.42849e+06 
114 -0.05865 8.83397e-05 615.654 273.145 5.0248 5.02406 -0.350019 -0.423059 1.42861e+06 
115 -0.05855 8.83422e-05 615.641 273.148 5.02501 5.02483 -0.351257 -0.630735 1.42884e+06 
116 -0.05845 8.83403e-05 615.649 273.142 5.02479 5.02433 -0.299407 -0.380324 1.42867e+06 
117 -0.05835 8.83416e-05 615.649 273.143 5.02487 5.02449 -0.354668 -0.460307 1.42878e+06 
118 -0.05825 8.83437e-05 615.634 273.169 5.02547 5.02533 -0.6659 -0.799352 1.42942e+06 
119 -0.05815 8.83386e-05 615.667 273.134 5.02454 5.02351 -0.294021 -0.222039 1.42841e+06 
120 -0.05805 8.83399e-05 615.655 273.144 5.02481 5.02427 -0.371511 -0.378925 1.42876e+06 
121 -0.05795 8.83371e-05 615.675 273.126 5.0243 5.02307 -0.186471 0.0502298 1.42818e+06 
122 -0.05785 8.83394e-05 615.66 273.138 5.02466 5.02403 -0.304779 -0.197568 1.42864e+06 
123 -0.05775 8.83392e-05 615.659 273.132 5.02454 5.02405 -0.202047 -0.136373 1.42855e+06 
124 -0.05765 8.8342e-05 615.633 273.15 5.02502 5.02539 -0.341029 -0.53241 1.42913e+06 
125 -0.05755 8.83405e-05 615.648 273.139 5.02473 5.02473 -0.236197 -0.339585 1.42876e+06 
95 -0.06055 8.83386e-05 615.659 273.125 5.02436 5.02371 -0.0437926 -0.243277 1.42812e+06 
96 -0.06045 8.83385e-05 615.657 273.135 5.02455 5.02385 -0.218765 -0.286126 1.42846e+06 
133 -0.05675 8.83473e-05 615.602 273.18 5.02588 5.02712 -0.701859 -0.883433 1.4301e+06 
129 -0.05715 8.83438e-05 615.622 273.162 5.02535 5.02602 -0.488632 -0.710477 1.42955e+06 
130 -0.05705 8.8339e-05 615.659 273.123 5.02436 5.02405 -0.0126773 -0.00542652 1.42845e+06 
131 -0.05695 8.83398e-05 615.653 273.132 5.02456 5.02445 -0.089846 0.0226881 1.42864e+06 
132 -0.05685 8.83432e-05 615.628 273.148 5.02506 5.02543 -0.32148 -0.336957 1.42919e+06 
134 -0.05665 8.83434e-05 615.63 273.15 5.0251 5.02554 -0.320953 -0.228611 1.4292e+06 
135 -0.05655 8.83437e-05 615.627 273.152 5.02515 5.02566 -0.366542 -0.325837 1.42928e+06 
136 -0.05645 8.83413e-05 615.645 273.132 5.02465 5.02453 -0.159712 0.108431 1.42874e+06 
137 -0.05635 8.83422e-05 615.638 273.14 5.02486 5.02484 -0.240112 -0.0813732 1.42894e+06 
138 -0.05625 8.83402e-05 615.655 273.125 5.02446 5.02403 -0.0735794 0.148547 1.42854e+06 
139 -0.05615 8.83411e-05 615.65 273.134 5.02468 5.02437 -0.171499 -0.00186408 1.42872e+06 
140 -0.05605 8.83422e-05 615.642 273.134 5.02475 5.02476 -0.132848 -0.126716 1.42877e+06 
141 -0.05595 8.83413e-05 615.651 273.132 5.02466 5.0243 -0.15691 0.0637484 1.42865e+06 
142 -0.05585 8.83426e-05 615.644 273.139 5.02486 5.02478 -0.232907 -0.0442673 1.4289e+06 
143 -0.05575 8.8346e-05 615.62 273.154 5.02533 5.02612 -0.395397 -0.514998 1.42945e+06 
144 -0.05565 8.8346e-05 615.62 273.16 5.02543 5.02614 -0.466562 -0.5957 1.42953e+06 
145 -0.05555 8.83433e-05 615.64 273.135 5.02482 5.02496 -0.158008 -0.141105 1.42884e+06 
146 -0.05545 8.83444e-05 615.633 273.132 5.02482 5.02527 -0.0468995 -0.14101 1.42879e+06 
147 -0.05535 8.83444e-05 615.632 273.141 5.02499 5.02537 -0.19295 -0.120011 1.42895e+06 
148 -0.05525 8.83476e-05 615.608 273.17 5.02572 5.02669 -0.529136 -0.612549 1.42975e+06 
149 -0.05515 8.83469e-05 615.617 273.164 5.02555 5.02612 -0.480166 -0.415314 1.42955e+06 
150 -0.05505 8.8348e-05 615.603 273.167 5.02568 5.0268 -0.540148 -0.721085 1.42979e+06 
151 -0.05495 8.83456e-05 615.625 273.15 5.02523 5.02575 -0.319441 -0.311532 1.42925e+06 
152 -0.05485 8.8342e-05 615.65 273.119 5.02446 5.02445 0.0662863 0.168644 1.42843e+06 
153 -0.05475 8.83442e-05 615.628 273.137 5.02492 5.02546 -0.139417 -0.123577 1.42893e+06 
154 -0.05465 8.8344e-05 615.633 273.139 5.02494 5.02538 -0.170735 -0.142852 1.42896e+06 
155 -0.05455 8.83406e-05 615.655 273.118 5.02435 5.02407 0.0322548 0.193718 1.42832e+06 
156 -0.05445 8.83421e-05 615.643 273.129 5.02464 5.0247 -0.0706647 0.000502031 1.42864e+06 
126 -0.05745 8.83447e-05 615.622 273.163 5.02541 5.02609 -0.540525 -0.75835 1.42949e+06 
127 -0.05735 8.83456e-05 615.613 273.175 5.02568 5.02654 -0.673603 -0.876054 1.4298e+06 
128 -0.05725 8.83455e-05 615.614 273.168 5.02555 5.02646 -0.537587 -0.825586 1.42969e+06 
166 -0.05345 8.83423e-05 615.646 273.127 5.02462 5.02461 -0.0395288 -0.103133 1.42856e+06 
161 -0.05395 8.83421e-05 615.652 273.133 5.02471 5.0243 -0.154662 0.0232936 1.42862e+06 
162 -0.05385 8.8342e-05 615.647 273.129 5.02464 5.02437 -0.110012 -0.00357833 1.42861e+06 
163 -0.05375 8.8341e-05 615.654 273.129 5.02459 5.02411 -0.123552 0.0697608 1.42854e+06 
164 -0.05365 8.83413e-05 615.654 273.13 5.02462 5.02429 -0.076702 0.0351904 1.42855e+06 
165 -0.05355 8.83406e-05 615.656 273.114 5.02427 5.02394 0.0689161 0.138679 1.42825e+06 
167 -0.05335 8.83416e-05 615.647 273.123 5.02451 5.02449 -0.00684055 -0.0248933 1.4285e+06 
168 -0.05325 8.83439e-05 615.634 273.136 5.02487 5.02527 -0.148198 -0.324307 1.42888e+06 
169 -0.05315 8.83423e-05 615.638 273.133 5.02473 5.02492 -0.150418 -0.300586 1.42878e+06 
170 -0.05305 8.83439e-05 615.629 273.143 5.025 5.02542 -0.211976 -0.412576 1.42906e+06 
171 -0.05295 8.83421e-05 615.643 273.13 5.02467 5.02475 -0.0896524 -0.185618 1.42869e+06 
172 -0.05285 8.83407e-05 615.65 273.127 5.02453 5.02438 -0.0483977 -0.0591459 1.4286e+06 
173 -0.05275 8.83395e-05 615.661 273.122 5.02437 5.02383 -0.0525682 0.0774475 1.42839e+06 
174 -0.05265 8.83377e-05 615.672 273.109 5.02403 5.02322 0.142794 0.3145 1.42803e+06 
175 -0.05255 8.83402e-05 615.658 273.124 5.02444 5.02401 -0.0369786 0.0842763 1.42849e+06 
176 -0.05245 8.83389e-05 615.665 273.114 5.02418 5.02364 0.0604381 0.144796 1.42829e+06 
177 -0.05235 8.83386e-05 615.666 273.114 5.02416 5.02359 0.104537 0.161564 1.42825e+06 
178 -0.05225 8.8339e-05 615.659 273.124 5.02437 5.02388 -0.0577278 0.0713333 1.42852e+06 
179 -0.05215 8.83398e-05 615.656 273.131 5.02456 5.02406 -0.190173 -0.0166916 1.42875e+06 
180 -0.05205 8.8341e-05 615.641 273.14 5.02478 5.02473 -0.253459 -0.277507 1.42904e+06 
181 -0.05195 8.83415e-05 615.651 273.131 5.02465 5.02444 -0.146621 -0.19952 1.42877e+06 
182 -0.05185 8.83364e-05 615.684 273.111 5.02399 5.02266 0.04117 0.428764 1.42806e+06 
183 -0.05175 8.83385e-05 615.665 273.124 5.02435 5.02347 -0.0944998 0.148641 1.42844e+06 
184 -0.05165 8.83408e-05 615.652 273.134 5.02467 5.02424 -0.196925 -0.138738 1.4288e+06 
185 -0.05155 8.83422e-05 615.642 273.15 5.02503 5.02486 -0.409305 -0.382156 1.4292e+06 
186 -0.05145 8.83387e-05 615.671 273.121 5.0243 5.02326 -0.0545132 0.214392 1.42832e+06 
187 -0.05135 8.83406e-05 615.653 273.132 5.02462 5.02416 -0.213795 -0.129351 1.42875e+06 
188 -0.05125 8.83416e-05 615.648 273.139 5.02479 5.02445 -0.251795 -0.168815 1.4289e+06 
157 -0.05435 8.83436e-05 615.638 273.129 5.02472 5.025 -0.0672312 -0.123145 1.4287e+06 
158 -0.05425 8.83426e-05 615.64 273.13 5.02469 5.02459 -0.113799 -0.026286 1.4286e+06 
159 -0.05415 8.83429e-05 615.641 273.132 5.02476 5.0248 -0.120938 -0.148558 1.42872e+06 
160 -0.05405 8.83426e-05 615.641 273.138 5.02484 5.02479 -0.224893 -0.181444 1.42885e+06 
199 -0.05015 8.83418e-05 615.653 273.117 5.0244 5.024 0.00689256 0.151401 1.42848e+06 
193 -0.05075 8.83438e-05 615.64 273.135 5.02486 5.02489 -0.180886 -0.188814 1.42892e+06 
194 -0.05065 8.83472e-05 615.611 273.153 5.02538 5.0262 -0.369607 -0.617363 1.42951e+06 
195 -0.05055 8.83474e-05 615.612 273.153 5.02539 5.02626 -0.34893 -0.574032 1.42955e+06 
196 -0.05045 8.8346e-05 615.622 273.149 5.02524 5.02573 -0.321828 -0.361775 1.4294e+06 
197 -0.05035 8.83449e-05 615.632 273.137 5.02494 5.02504 -0.193394 -0.224948 1.42905e+06 
198 -0.05025 8.83427e-05 615.648 273.126 5.02463 5.02441 -0.0878131 -0.00347359 1.42873e+06 
200 -0.05005 8.83477e-05 615.614 273.151 5.02537 5.02611 -0.357068 -0.522965 1.42954e+06 
201 -0.04995 8.83486e-05 615.606 273.153 5.02545 5.02652 -0.295711 -0.622416 1.4296e+06 
202 -0.04985 8.83463e-05 615.621 273.138 5.02506 5.02577 -0.171592 -0.487314 1.42922e+06 
203 -0.04975 8.83441e-05 615.637 273.129 5.02477 5.02474 -0.120633 -0.146695 1.42882e+06 
204 -0.04965 8.83449e-05 615.63 273.138 5.02497 5.02522 -0.175334 -0.289002 1.42904e+06 
205 -0.04955 8.83442e-05 615.632 273.139 5.02495 5.02503 -0.243311 -0.202617 1.42902e+06 
206 -0.04945 8.83419e-05 615.649 273.123 5.02452 5.02416 -0.0344427 0.114727 1.42855e+06 
207 -0.04935 8.83457e-05 615.622 273.153 5.02528 5.02571 -0.403499 -0.374358 1.42946e+06 
208 -0.04925 8.83446e-05 615.632 273.145 5.02508 5.0251 -0.274936 -0.17957 1.42919e+06 
209 -0.04915 8.83405e-05 615.653 273.124 5.02447 5.02392 -0.095672 0.151046 1.42863e+06 
210 -0.04905 8.83399e-05 615.658 273.116 5.02428 5.02358 0.0187259 0.284232 1.42842e+06 
211 -0.04895 8.83391e-05 615.672 273.109 5.02411 5.02308 0.11057 0.480117 1.42817e+06 
212 -0.04885 8.83394e-05 615.665 273.108 5.0241 5.02328 0.155776 0.410064 1.42817e+06 
213 -0.04875 8.83373e-05 615.675 273.099 5.02382 5.02257 0.261472 0.566095 1.42787e+06 
214 -0.04865 8.8342e-05 615.644 273.126 5.02458 5.02434 -0.0371052 -0.0337354 1.42872e+06 
215 -0.04855 8.83428e-05 615.637 273.131 5.02473 5.0247 -0.0777885 -0.13931 1.42889e+06 
216 -0.04845 8.8341e-05 615.65 273.117 5.02437 5.02409 0.0973153 0.121699 1.42853e+06 
217 -0.04835 8.83405e-05 615.654 273.122 5.02442 5.02385 -0.0058842 0.185521 1.42853e+06 
218 -0.04825 8.83389e-05 615.661 273.11 5.02411 5.02334 0.122098 0.26102 1.42818e+06 
219 -0.04815 8.8339e-05 615.666 273.114 5.0242 5.0233 0.0797387 0.307851 1.42826e+06 
189 -0.05115 8.83438e-05 615.637 273.15 5.02513 5.02507 -0.390781 -0.315477 1.42923e+06 
190 -0.05105 8.83459e-05 615.62 273.159 5.02542 5.02594 -0.455682 -0.636925 1.42955e+06 
191 -0.05095 8.83452e-05 615.627 273.153 5.02526 5.02568 -0.385845 -0.545229 1.42939e+06 
192 -0.05085 8.83436e-05 615.632 273.139 5.02491 5.02513 -0.226496 -0.336083 1.42902e+06 
232 -0.04685 8.83437e-05 615.625 273.146 5.02505 5.02533 -0.268355 -0.421506 1.42936e+06 
225 -0.04755 8.8346e-05 615.616 273.157 5.02538 5.02585 -0.412258 -0.628151 1.42972e+06 
226 -0.04745 8.83459e-05 615.614 273.16 5.02543 5.02596 -0.449805 -0.660576 1.42986e+06 
227 -0.04735 8.83472e-05 615.607 273.16 5.0255 5.02639 -0.403254 -0.705301 1.42996e+06 
228 -0.04725 8.83468e-05 615.609 273.154 5.02537 5.02616 -0.328703 -0.603458 1.42974e+06 
229 -0.04715 8.83485e-05 615.598 273.177 5.02589 5.02685 -0.648765 -0.91925 1.43035e+06 
230 -0.04705 8.83452e-05 615.621 273.15 5.0252 5.02569 -0.332322 -0.57662 1.42963e+06 
231 -0.04695 8.83471e-05 615.609 273.163 5.02555 5.02622 -0.485083 -0.684889 1.42989e+06 
233 -0.04675 8.83405e-05 615.653 273.127 5.02452 5.02392 -0.101397 0.111489 1.42873e+06 
234 -0.04665 8.83377e-05 615.667 273.113 5.02409 5.02306 0.0832825 0.403351 1.42828e+06 
235 -0.04655 8.83386e-05 615.662 273.112 5.02413 5.02338 0.0931085 0.265301 1.42837e+06 
236 -0.04645 8.834e-05 615.652 273.12 5.02436 5.0238 -0.00448722 0.135379 1.42861e+06 
237 -0.04635 8.83388e-05 615.66 273.115 5.02419 5.02351 0.0637486 0.234306 1.42848e+06 
238 -0.04625 8.83386e-05 615.666 273.103 5.02397 5.02317 0.255369 0.459872 1.42817e+06 
239 -0.04615 8.83406e-05 615.649 273.118 5.02435 5.0241 0.0944793 0.111535 1.42862e+06 
240 -0.04605 8.83387e-05 615.658 273.124 5.02436 5.02358 -0.0629199 0.152256 1.4287e+06 
241 -0.04595 8.8342e-05 615.638 273.137 5.02478 5.02469 -0.155815 -0.171845 1.42913e+06 
242 -0.04585 8.83416e-05 615.639 273.139 5.0248 5.02466 -0.208376 -0.209171 1.42914e+06 
243 -0.04575 8.83424e-05 615.634 273.137 5.02481 5.02484 -0.187807 -0.256957 1.42917e+06 
244 -0.04565 8.83426e-05 615.636 273.143 5.02492 5.02487 -0.256761 -0.261938 1.42928e+06 
245 -0.04555 8.83409e-05 615.644 273.134 5.02467 5.02433 -0.146147 -0.134486 1.42907e+06 
246 -0.04545 8.8339e-05 615.662 273.105 5.02403 5.02338 0.191092 0.244779 1.42833e+06 
247 -0.04535 8.8338e-05 615.669 273.097 5.02382 5.02284 0.310089 0.597594 1.42804e+06 
248 -0.04525 8.83391e-05 615.662 273.107 5.02407 5.02344 0.209529 0.417769 1.42833e+06 
249 -0.04515 8.83397e-05 615.65 273.114 5.02422 5.02386 0.078525 0.188633 1.42857e+06 
250 -0.04505 8.83384e-05 615.664 273.105 5.024 5.02331 0.189395 0.343308 1.42828e+06 
220 -0.04805 8.83402e-05 615.655 273.114 5.02425 5.02366 0.0901997 0.157681 1.42839e+06 
221 -0.04795 8.83433e-05 615.634 273.136 5.02484 5.0249 -0.153059 -0.219676 1.42908e+06 
222 -0.04785 8.83438e-05 615.632 273.144 5.02501 5.02494 -0.290308 -0.218858 1.42924e+06 
223 -0.04775 8.83442e-05 615.63 273.149 5.02512 5.02516 -0.327893 -0.391675 1.4294e+06 
224 -0.04765 8.8345e-05 615.623 273.153 5.02525 5.02544 -0.377718 -0.514345 1.42956e+06 
265 -0.04355 8.83349e-05 615.687 273.087 5.02346 5.02221 0.384739 0.597098 1.42767e+06 
257 -0.04435 8.83355e-05 615.683 273.1 5.02373 5.02243 0.183928 0.270852 1.42796e+06 
258 -0.04425 8.83379e-05 615.666 273.108 5.02402 5.02332 0.130714 0.0279113 1.42828e+06 
259 -0.04415 8.83383e-05 615.666 273.107 5.02403 5.02339 0.178964 0.0976922 1.42829e+06 
260 -0.04405 8.83355e-05 615.685 273.086 5.02349 5.02221 0.388033 0.572149 1.42766e+06 
261 -0.04395 8.83349e-05 615.687 273.08 5.02333 5.02213 0.482422 0.603397 1.42754e+06 
262 -0.04385 8.83352e-05 615.682 273.09 5.02353 5.0224 0.348182 0.578524 1.42783e+06 
263 -0.04375 8.83357e-05 615.685 273.089 5.02354 5.02245 0.375574 0.572894 1.42778e+06 
264 -0.04365 8.83339e-05 615.69 273.077 5.02323 5.02196 0.48167 0.656717 1.42746e+06 
266 -0.04345 8.83387e-05 615.663 273.111 5.02412 5.02343 0.0618441 0.20986 1.42839e+06 
267 -0.04335 8.83366e-05 615.676 273.092 5.02365 5.02271 0.350853 0.548304 1.42789e+06 
268 -0.04325 8.83398e-05 615.657 273.114 5.02423 5.02355 0.074681 0.288424 1.42843e+06 
269 -0.04315 8.83379e-05 615.667 273.109 5.02403 5.02314 0.137518 0.420717 1.42824e+06 
270 -0.04305 8.83386e-05 615.665 273.104 5.02398 5.02318 0.2151 0.427984 1.42814e+06 
271 -0.04295 8.83356e-05 615.681 273.083 5.02343 5.02228 0.480884 0.736981 1.42757e+06 
272 -0.04285 8.83364e-05 615.679 273.088 5.02356 5.02249 0.397789 0.739004 1.42766e+06 
273 -0.04275 8.83406e-05 615.648 273.12 5.0244 5.02413 0.00998905 0.159899 1.42861e+06 
274 -0.04265 8.8343e-05 615.635 273.136 5.02483 5.02503 -0.136341 -0.0717057 1.42909e+06 
275 -0.04255 8.83433e-05 615.625 273.142 5.02496 5.02524 -0.275686 -0.249837 1.42929e+06 
276 -0.04245 8.83404e-05 615.65 273.119 5.02436 5.02409 0.0190328 0.175481 1.42864e+06 
277 -0.04235 8.83387e-05 615.66 273.109 5.02408 5.02352 0.131889 0.279036 1.42834e+06 
278 -0.04225 8.83408e-05 615.643 273.116 5.02433 5.02446 0.124178 -0.0455085 1.42866e+06 
279 -0.04215 8.83453e-05 615.618 273.14 5.02503 5.02576 -0.1462 -0.450902 1.42936e+06 
280 -0.04205 8.83432e-05 615.631 273.133 5.02478 5.02509 -0.10387 -0.242674 1.42907e+06 
281 -0.04195 8.83438e-05 615.623 273.142 5.02499 5.02544 -0.203557 -0.420147 1.42931e+06 
251 -0.04495 8.83397e-05 615.657 273.115 5.02425 5.02373 0.0438395 0.164436 1.42854e+06 
252 -0.04485 8.83408e-05 615.65 273.123 5.02446 5.02415 -0.0594695 -0.0290992 1.42874e+06 
253 -0.04475 8.83373e-05 615.672 273.102 5.02388 5.02306 0.207027 0.289681 1.42808e+06 
254 -0.04465 8.83396e-05 615.654 273.117 5.02429 5.02381 0.0292626 0.0238762 1.42855e+06 
255 -0.04455 8.8342e-05 615.639 273.128 5.02461 5.02469 -0.0922853 -0.344162 1.42894e+06 
256 -0.04445 8.83356e-05 615.681 273.098 5.02371 5.02247 0.204455 0.373119 1.42793e+06 
298 -0.04025 8.83415e-05 615.658 273.101 5.0241 5.02337 0.317102 0.685739 1.42801e+06 
289 -0.04115 8.83439e-05 615.634 273.127 5.0247 5.02498 0.0315391 -0.0586785 1.42891e+06 
290 -0.04105 8.83441e-05 615.627 273.137 5.0249 5.02516 -0.138454 -0.198954 1.42914e+06 
291 -0.04095 8.83438e-05 615.633 273.128 5.02473 5.02483 -0.0106217 -0.100865 1.4289e+06 
292 -0.04085 8.83439e-05 615.638 273.121 5.0246 5.02467 0.0430802 -0.128071 1.42879e+06 
293 -0.04075 8.83424e-05 615.643 273.109 5.02429 5.02428 0.242821 0.13026 1.4284e+06 
294 -0.04065 8.83426e-05 615.644 273.115 5.02441 5.02426 0.127974 0.158945 1.42856e+06 
295 -0.04055 8.83429e-05 615.644 273.117 5.02446 5.02419 0.0927678 0.279322 1.42855e+06 
296 -0.04045 8.83426e-05 615.645 273.108 5.02428 5.02404 0.200067 0.402537 1.42836e+06 
297 -0.04035 8.83423e-05 615.652 273.103 5.02418 5.0237 0.287578 0.540719 1.42816e+06 
299 -0.04015 8.83416e-05 615.659 273.105 5.02418 5.02336 0.249909 0.668957 1.42807e+06 
300 -0.04005 8.83412e-05 615.656 273.107 5.0242 5.02357 0.219013 0.526954 1.42817e+06 
301 -0.03995 8.83442e-05 615.639 273.122 5.02465 5.02459 0.0397912 0.210316 1.42865e+06 
302 -0.03985 8.83473e-05 615.625 273.136 5.02507 5.02527 -0.075781 0.0540762 1.42896e+06 
303 -0.03975 8.83451e-05 615.631 273.119 5.02464 5.02485 0.185027 0.16319 1.42854e+06 
304 -0.03965 8.83468e-05 615.619 273.135 5.02503 5.02556 -0.0718883 -0.152368 1.42905e+06 
305 -0.03955 8.83429e-05 615.648 273.113 5.0244 5.02401 0.196643 0.361664 1.42833e+06 
306 -0.03945 8.83437e-05 615.64 273.123 5.02462 5.02432 0.0329793 0.272737 1.42861e+06 
307 -0.03935 8.83493e-05 615.603 273.145 5.02534 5.02626 -0.132543 -0.346988 1.42941e+06 
308 -0.03925 8.8347e-05 615.621 273.141 5.02514 5.02556 -0.158383 -0.0956023 1.42923e+06 
309 -0.03915 8.83435e-05 615.642 273.116 5.02448 5.02411 0.148472 0.397069 1.42846e+06 
310 -0.03905 8.8343e-05 615.647 273.117 5.02447 5.02398 0.131363 0.450135 1.42841e+06 
311 -0.03895 8.83415e-05 615.657 273.108 5.02422 5.02348 0.247173 0.649311 1.42815e+06 
312 -0.03885 8.83437e-05 615.646 273.107 5.02432 5.02401 0.289021 0.422087 1.42826e+06 
313 -0.03875 8.83444e-05 615.637 273.118 5.02458 5.02456 0.131471 0.216558 1.42863e+06 
282 -0.04185 8.83463e-05 615.612 273.137 5.02504 5.02603 -0.0915519 -0.508793 1.42939e+06 
283 -0.04175 8.83466e-05 615.601 273.15 5.02528 5.02666 -0.225609 -0.731374 1.42977e+06 
284 -0.04165 8.83449e-05 615.623 273.133 5.02488 5.0255 -0.0409504 -0.267654 1.42917e+06 
285 -0.04155 8.83398e-05 615.657 273.105 5.02407 5.02366 0.229036 0.281182 1.42829e+06 
286 -0.04145 8.83389e-05 615.663 273.101 5.02394 5.02336 0.320255 0.439092 1.42812e+06 
287 -0.04135 8.83406e-05 615.652 273.11 5.02421 5.02388 0.200206 0.282594 1.4284e+06 
288 -0.04125 8.83408e-05 615.648 273.105 5.02414 5.02404 0.294376 0.262719 1.42834e+06 
331 -0.03695 8.83421e-05 615.661 273.108 5.02426 5.02299 0.203026 0.518738 1.42827e+06 
321 -0.03795 8.83523e-05 615.588 273.161 5.02581 5.02689 -0.380761 -0.615518 1.42993e+06 
322 -0.03785 8.83515e-05 615.596 273.164 5.02582 5.02665 -0.424599 -0.603244 1.42994e+06 
323 -0.03775 8.83451e-05 615.636 273.123 5.0247 5.02425 0.0405497 0.167695 1.42873e+06 
324 -0.03765 8.83491e-05 615.608 273.152 5.02546 5.02589 -0.27015 -0.399601 1.42956e+06 
325 -0.03755 8.83495e-05 615.607 273.16 5.02564 5.02591 -0.434984 -0.498508 1.42977e+06 
326 -0.03745 8.83444e-05 615.642 273.133 5.02484 5.02376 -0.152084 0.186854 1.42876e+06 
327 -0.03735 8.83461e-05 615.634 273.137 5.02501 5.02452 -0.122339 0.100086 1.429e+06 
328 -0.03725 8.8347e-05 615.628 273.129 5.02492 5.02474 -0.0191088 -0.00498893 1.42896e+06 
329 -0.03715 8.83435e-05 615.647 273.106 5.0243 5.02372 0.28846 0.353106 1.42837e+06 
330 -0.03705 8.83448e-05 615.64 273.12 5.02463 5.02394 0.0752741 0.227459 1.42868e+06 
332 -0.03685 8.83444e-05 615.645 273.113 5.02448 5.02372 0.162815 0.234712 1.42854e+06 
333 -0.03675 8.83471e-05 615.63 273.129 5.02493 5.02474 0.0154242 -0.0871292 1.42898e+06 
334 -0.03665 8.83489e-05 615.617 273.147 5.02537 5.0254 -0.256588 -0.31222 1.42952e+06 
335 -0.03655 8.83481e-05 615.62 273.142 5.02522 5.02503 -0.167393 -0.194014 1.42928e+06 
336 -0.03645 8.83477e-05 615.629 273.138 5.02513 5.0249 -0.146174 -0.248752 1.42925e+06 
337 -0.03635 8.83468e-05 615.626 273.132 5.02497 5.02469 -0.0354197 -0.0742774 1.42903e+06 
338 -0.03625 8.83523e-05 615.597 273.161 5.02581 5.02645 -0.335753 -0.604932 1.42995e+06 
339 -0.03615 8.83499e-05 615.607 273.148 5.02544 5.02581 -0.213135 -0.402311 1.42965e+06 
340 -0.03605 8.83524e-05 615.59 273.164 5.02588 5.02669 -0.371402 -0.625394 1.43014e+06 
341 -0.03595 8.83534e-05 615.585 273.169 5.02601 5.02707 -0.428163 -0.743493 1.43025e+06 
342 -0.03585 8.83529e-05 615.591 273.165 5.02592 5.0267 -0.385207 -0.616144 1.43006e+06 
343 -0.03575 8.83513e-05 615.596 273.167 5.02587 5.02638 -0.413268 -0.513527 1.43003e+06 