TITLE = "DSMC"
VARIABLES = "ID" "X" "rho" "v1" "Ttrans" "p" "p1" "q1" "mv1v1v1" "mvvv1v1"
ZONE T="Ma=5.2", I=800, J=1, K=1, F=POINT
1 -0.04995 8.83408e-05 1600.66 273.103 5.02409 5.02294 -0.015331 -0.0894267 1426560.0
2 -0.04985 8.83413e-05 1600.66 273.105 5.02416 5.02301 -0.0247588 -0.0780473 1426620.0
3 -0.04975 8.83406e-05 1600.66 273.105 5.02411 5.02295 -0.0234523 -0.0858444 1426650.0
4 -0.04965 8.83414e-05 1600.66 273.105 5.02415 5.02302 -0.0525852 -0.134875 1426720.0
5 -0.04955 8.83415e-05 1600.66 273.107 5.0242 5.02309 -0.0793529 -0.200535 1426800.0
6 -0.04945 8.8341e-05 1600.66 273.107 5.02418 5.02308 -0.0706331 -0.184278 1426870.0
7 -0.04935 8.83411e-05 1600.66 273.108 5.0242 5.02317 -0.103255 -0.199341 1426940.0
8 -0.04925 8.83414e-05 1600.66 273.105 5.02417 5.02316 -0.104801 -0.22734 1426960.0
9 -0.04915 8.83412e-05 1600.66 273.108 5.0242 5.02332 -0.115785 -0.268867 1427070.0
10 -0.04905 8.83415e-05 1600.66 273.107 5.02421 5.02336 -0.139552 -0.327126 1427100.0
11 -0.04895 8.83409e-05 1600.66 273.107 5.02418 5.02341 -0.136842 -0.343819 1427160.0
12 -0.04885 8.83415e-05 1600.66 273.106 5.02419 5.02335 -0.142732 -0.371643 1427180.0
13 -0.04875 8.83413e-05 1600.66 273.107 5.02418 5.02338 -0.164998 -0.396378 1427240.0
14 -0.04865 8.83412e-05 1600.66 273.107 5.02418 5.02332 -0.157331 -0.411304 1427230.0
15 -0.04855 8.83415e-05 1600.66 273.108 5.02422 5.02336 -0.167373 -0.410765 1427320.0
16 -0.04845 8.83412e-05 1600.66 273.108 5.02421 5.02327 -0.180266 -0.420038 1427290.0
17 -0.04835 8.83415e-05 1600.66 273.11 5.02426 5.0233 -0.183986 -0.405431 1427310.0
18 -0.04825 8.83409e-05 1600.66 273.107 5.02418 5.02337 -0.196496 -0.454956 1427380.0
19 -0.04815 8.8342e-05 1600.66 273.109 5.02427 5.02338 -0.192919 -0.435436 1427420.0
20 -0.04805 8.83414e-05 1600.66 273.107 5.0242 5.02329 -0.202597 -0.447212 1427400.0
21 -0.04795 8.83404e-05 1600.66 273.109 5.02418 5.02325 -0.216428 -0.448241 1427420.0
22 -0.04785 8.83415e-05 1600.66 273.109 5.02425 5.02332 -0.220156 -0.445651 1427460.0
23 -0.04775 8.83413e-05 1600.66 273.108 5.02421 5.02326 -0.232937 -0.489863 1427460.0
24 -0.04765 8.83414e-05 1600.66 273.11 5.02425 5.02334 -0.233959 -0.449452 1427510.0
25 -0.04755 8.83412e-05 1600.66 273.11 5.02425 5.02329 -0.218758 -0.415267 1427500.0
26 -0.04745 8.83409e-05 1600.66 273.107 5.02417 5.02323 -0.229352 -0.43741 1427480.0
27 -0.04735 8.83413e-05 1600.66 273.111 5.02427 5.02336 -0.244739 -0.448461 1427560.0
28 -0.04725 8.83414e-05 1600.66 273.11 5.02426 5.02333 -0.252252 -0.459841 1427560.0
29 -0.04715 8.83411e-05 1600.66 273.11 5.02424 5.02346 -0.260229 -0.484077 1427660.0
30 -0.04705 8.83417e-05 1600.66 273.111 5.0243 5.02349 -0.293856 -0.519079 1427680.0
31 -0.04695 8.83408e-05 1600.66 273.11 5.02422 5.02352 -0.300825 -0.562995 1427720.0
32 -0.04685 8.83412e-05 1600.66 273.112 5.02429 5.02357 -0.292014 -0.565935 1427760.0
33 -0.04675 8.83412e-05 1600.66 273.111 5.02427 5.02361 -0.295052 -0.556612 1427800.0
34 -0.04665 8.83418e-05 1600.66 273.111 5.0243 5.02357 -0.29215 -0.529252 1427800.0
35 -0.04655 8.83413e-05 1600.66 273.111 5.02427 5.02354 -0.280732 -0.504652 1427780.0
36 -0.04645 8.83414e-05 1600.66 273.112 5.02429 5.02367 -0.288435 -0.522233 1427840.0
37 -0.04635 8.83415e-05 1600.66 273.113 5.02431 5.02368 -0.276215 -0.53482 1427890.0
38 -0.04625 8.83415e-05 1600.66 273.112 5.0243 5.0237 -0.279219 -0.55131 1427920.0
39 -0.04615 8.83417e-05 1600.66 273.111 5.02429 5.02375 -0.277107 -0.559947 1427950.0
40 -0.04605 8.8341e-05 1600.66 273.111 5.02424 5.02361 -0.28473 -0.581624 1427940.0
41 -0.04595 8.83416e-05 1600.66 273.113 5.02433 5.02382 -0.292412 -0.577723 1428040.0
42 -0.04585 8.83412e-05 1600.65 273.112 5.02429 5.02379 -0.309199 -0.579749 1428050.0
43 -0.04575 8.83418e-05 1600.66 273.112 5.02431 5.02384 -0.303884 -0.559208 1428050.0
44 -0.04565 8.83415e-05 1600.66 273.115 5.02434 5.0238 -0.295705 -0.521409 1428040.0
45 -0.04555 8.83417e-05 1600.66 273.112 5.02431 5.02382 -0.298867 -0.516547 1428060.0
46 -0.04545 8.83415e-05 1600.66 273.113 5.02431 5.02378 -0.276217 -0.45471 1428080.0
47 -0.04535 8.83412e-05 1600.66 273.112 5.02427 5.02369 -0.300752 -0.463963 1428040.0
48 -0.04525 8.83424e-05 1600.66 273.113 5.02436 5.02376 -0.274843 -0.444497 1428060.0
49 -0.04515 8.8341e-05 1600.66 273.113 5.02428 5.0237 -0.310743 -0.489104 1428060.0
50 -0.04505 8.8342e-05 1600.66 273.113 5.02435 5.0238 -0.290073 -0.478218 1428100.0
51 -0.04495 8.8341e-05 1600.66 273.113 5.02428 5.02374 -0.306958 -0.50338 1428100.0
52 -0.04485 8.83417e-05 1600.66 273.113 5.02433 5.02378 -0.262182 -0.458953 1428090.0
53 -0.04475 8.83416e-05 1600.66 273.112 5.02431 5.02379 -0.272813 -0.473999 1428120.0
54 -0.04465 8.83415e-05 1600.66 273.114 5.02433 5.02389 -0.246555 -0.418916 1428180.0
55 -0.04455 8.83413e-05 1600.66 273.113 5.02431 5.02387 -0.265454 -0.437779 1428160.0
56 -0.04445 8.83428e-05 1600.66 273.112 5.02436 5.02387 -0.265311 -0.44104 1428120.0
57 -0.04435 8.83413e-05 1600.65 273.113 5.02431 5.0238 -0.243417 -0.413482 1428140.0
58 -0.04425 8.83409e-05 1600.66 273.112 5.02426 5.02373 -0.263582 -0.424186 1428090.0
59 -0.04415 8.83426e-05 1600.66 273.111 5.02435 5.02382 -0.240318 -0.427553 1428130.0
60 -0.04405 8.83416e-05 1600.66 273.115 5.02437 5.02392 -0.242008 -0.44873 1428210.0
61 -0.04395 8.83421e-05 1600.66 273.112 5.02432 5.02384 -0.237434 -0.41476 1428190.0
62 -0.04385 8.83409e-05 1600.66 273.112 5.02426 5.02379 -0.257245 -0.452709 1428200.0
63 -0.04375 8.83414e-05 1600.66 273.112 5.02429 5.02386 -0.230782 -0.407668 1428220.0
64 -0.04365 8.83414e-05 1600.66 273.11 5.02425 5.0239 -0.240569 -0.412605 1428230.0
65 -0.04355 8.83425e-05 1600.66 273.114 5.0244 5.02398 -0.226259 -0.377069 1428290.0
66 -0.04345 8.83416e-05 1600.65 273.111 5.02428 5.0238 -0.229773 -0.376146 1428250.0
67 -0.04335 8.83413e-05 1600.65 273.113 5.0243 5.02375 -0.236177 -0.365642 1428240.0
68 -0.04325 8.83424e-05 1600.66 273.112 5.02435 5.02385 -0.273446 -0.445815 1428340.0
69 -0.04315 8.83413e-05 1600.65 273.114 5.02432 5.02381 -0.265852 -0.431737 1428420.0
70 -0.04305 8.8342e-05 1600.66 273.113 5.02434 5.02384 -0.264307 -0.452887 1428410.0
71 -0.04295 8.83417e-05 1600.65 273.114 5.02434 5.02388 -0.27129 -0.488117 1428430.0
72 -0.04285 8.83414e-05 1600.66 273.113 5.0243 5.02372 -0.275731 -0.495463 1428360.0
73 -0.04275 8.83416e-05 1600.66 273.114 5.02434 5.02382 -0.274822 -0.517009 1428460.0
74 -0.04265 8.83419e-05 1600.65 273.113 5.02433 5.02382 -0.278052 -0.516184 1428440.0
75 -0.04255 8.83419e-05 1600.65 273.113 5.02435 5.02389 -0.286177 -0.554777 1428460.0
76 -0.04245 8.8341e-05 1600.65 273.116 5.02434 5.02379 -0.272822 -0.526624 1428420.0
77 -0.04235 8.83421e-05 1600.66 273.115 5.02439 5.02397 -0.288343 -0.551999 1428570.0
78 -0.04225 8.8342e-05 1600.65 273.114 5.02436 5.02387 -0.293569 -0.529278 1428500.0
79 -0.04215 8.83413e-05 1600.65 273.116 5.02436 5.02397 -0.295088 -0.55478 1428600.0
80 -0.04205 8.83423e-05 1600.65 273.115 5.02441 5.02402 -0.277274 -0.500972 1428640.0
81 -0.04195 8.83416e-05 1600.65 273.116 5.02438 5.02404 -0.283466 -0.497744 1428620.0
82 -0.04185 8.83416e-05 1600.65 273.114 5.02434 5.02409 -0.29633 -0.490636 1428660.0
83 -0.04175 8.83415e-05 1600.65 273.114 5.02434 5.024 -0.298781 -0.497142 1428640.0
84 -0.04165 8.83424e-05 1600.65 273.116 5.02443 5.02415 -0.268944 -0.479462 1428690.0
85 -0.04155 8.83421e-05 1600.65 273.115 5.02439 5.02414 -0.300346 -0.502214 1428720.0
86 -0.04145 8.83425e-05 1600.65 273.115 5.02441 5.02405 -0.268362 -0.465888 1428660.0
87 -0.04135 8.83414e-05 1600.65 273.116 5.02437 5.02403 -0.246367 -0.445106 1428680.0
88 -0.04125 8.83424e-05 1600.65 273.114 5.02438 5.02415 -0.259968 -0.471269 1428720.0
89 -0.04115 8.83417e-05 1600.65 273.115 5.02437 5.02402 -0.245344 -0.471178 1428690.0
90 -0.04105 8.83418e-05 1600.65 273.115 5.02436 5.02414 -0.273076 -0.472898 1428780.0
91 -0.04095 8.83424e-05 1600.65 273.116 5.02441 5.02409 -0.271373 -0.491866 1428770.0
92 -0.04085 8.83421e-05 1600.65 273.115 5.02439 5.02408 -0.286611 -0.48327 1428760.0
93 -0.04075 8.83414e-05 1600.65 273.116 5.02437 5.02405 -0.317507 -0.506295 1428780.0
94 -0.04065 8.8342e-05 1600.65 273.119 5.02445 5.02411 -0.315193 -0.50158 1428830.0
95 -0.04055 8.83417e-05 1600.65 273.114 5.02435 5.0241 -0.316991 -0.494692 1428880.0
96 -0.04045 8.8342e-05 1600.65 273.118 5.02443 5.02412 -0.330891 -0.533244 1428900.0
97 -0.04035 8.83422e-05 1600.65 273.116 5.02442 5.02414 -0.331536 -0.520402 1428950.0
98 -0.04025 8.83418e-05 1600.65 273.12 5.02446 5.02428 -0.370041 -0.571367 1429080.0
99 -0.04015 8.83416e-05 1600.65 273.117 5.02438 5.02416 -0.362687 -0.594606 1429040.0
100 -0.04005 8.83422e-05 1600.65 273.118 5.02445 5.0243 -0.355866 -0.610217 1429070.0
101 -0.03995 8.83417e-05 1600.65 273.118 5.02443 5.02423 -0.380383 -0.652418 1429090.0
102 -0.03985 8.83422e-05 1600.65 273.117 5.02443 5.02426 -0.353683 -0.609212 1429130.0
103 -0.03975 8.83414e-05 1600.65 273.117 5.02438 5.02415 -0.350559 -0.591934 1429120.0
104 -0.03965 8.83423e-05 1600.65 273.117 5.02444 5.02429 -0.351025 -0.603391 1429130.0
105 -0.03955 8.83418e-05 1600.65 273.118 5.02441 5.02415 -0.348081 -0.617905 1429150.0
106 -0.03945 8.83419e-05 1600.65 273.117 5.0244 5.02422 -0.360633 -0.618194 1429160.0
107 -0.03935 8.83423e-05 1600.65 273.118 5.02445 5.02419 -0.34909 -0.592622 1429160.0
108 -0.03925 8.83413e-05 1600.65 273.117 5.02438 5.0242 -0.355664 -0.613234 1429210.0
109 -0.03915 8.83423e-05 1600.65 273.118 5.02445 5.02423 -0.365618 -0.595798 1429190.0
110 -0.03905 8.83427e-05 1600.65 273.118 5.02448 5.02427 -0.344209 -0.59522 1429260.0
111 -0.03895 8.8342e-05 1600.65 273.118 5.02443 5.02417 -0.359571 -0.633341 1429240.0
112 -0.03885 8.83423e-05 1600.65 273.12 5.0245 5.02435 -0.412051 -0.664443 1429480.0
113 -0.03875 8.83412e-05 1600.65 273.117 5.02437 5.0242 -0.350013 -0.661155 1429360.0
114 -0.03865 8.83432e-05 1600.65 273.118 5.0245 5.02436 -0.370729 -0.681993 1429390.0
115 -0.03855 8.83418e-05 1600.65 273.118 5.02443 5.02421 -0.369435 -0.681976 1429310.0
116 -0.03845 8.83427e-05 1600.65 273.117 5.02445 5.02423 -0.353158 -0.618111 1429380.0
117 -0.03835 8.83421e-05 1600.65 273.119 5.02445 5.02422 -0.388704 -0.630875 1429440.0
118 -0.03825 8.83424e-05 1600.65 273.118 5.02445 5.02422 -0.372433 -0.634527 1429410.0
119 -0.03815 8.83419e-05 1600.65 273.117 5.02442 5.02419 -0.376671 -0.640377 1429420.0
120 -0.03805 8.83427e-05 1600.65 273.116 5.02444 5.0242 -0.376581 -0.635448 1429440.0
121 -0.03795 8.83418e-05 1600.65 273.121 5.02448 5.02425 -0.401242 -0.713652 1429580.0
122 -0.03785 8.83424e-05 1600.65 273.118 5.02447 5.02432 -0.42464 -0.72435 1429580.0
123 -0.03775 8.83416e-05 1600.65 273.117 5.0244 5.02423 -0.443336 -0.732034 1429670.0
124 -0.03765 8.83426e-05 1600.65 273.119 5.02449 5.02439 -0.426943 -0.732975 1429720.0
125 -0.03755 8.83427e-05 1600.65 273.119 5.0245 5.02436 -0.417947 -0.724922 1429710.0
126 -0.03745 8.83426e-05 1600.65 273.118 5.02448 5.02433 -0.424514 -0.708113 1429720.0
127 -0.03735 8.83416e-05 1600.65 273.121 5.02446 5.02432 -0.426718 -0.702259 1429750.0
128 -0.03725 8.83425e-05 1600.65 273.118 5.02447 5.02425 -0.436438 -0.709002 1429690.0
129 -0.03715 8.83424e-05 1600.65 273.12 5.0245 5.02426 -0.444645 -0.734415 1429760.0
130 -0.03705 8.83419e-05 1600.65 273.121 5.02449 5.02432 -0.443556 -0.736727 1429840.0
131 -0.03695 8.83425e-05 1600.65 273.117 5.02445 5.02428 -0.428157 -0.716328 1429810.0
132 -0.03685 8.83424e-05 1600.65 273.121 5.0245 5.02427 -0.447485 -0.732165 1429820.0
133 -0.03675 8.8342e-05 1600.65 273.121 5.02449 5.0243 -0.469689 -0.769127 1429930.0
134 -0.03665 8.83422e-05 1600.65 273.121 5.02451 5.02438 -0.479897 -0.793042 1430030.0
135 -0.03655 8.8343e-05 1600.65 273.124 5.02459 5.02441 -0.508078 -0.819332 1430130.0
136 -0.03645 8.83419e-05 1600.65 273.121 5.02449 5.02435 -0.475014 -0.780346 1430030.0
137 -0.03635 8.83423e-05 1600.65 273.121 5.02452 5.02442 -0.510655 -0.821982 1430190.0
138 -0.03625 8.83425e-05 1600.65 273.123 5.02455 5.02432 -0.564595 -0.882712 1430290.0
139 -0.03615 8.83426e-05 1600.65 273.121 5.02453 5.02435 -0.542369 -0.830869 1430250.0
140 -0.03605 8.83419e-05 1600.65 273.124 5.02453 5.02437 -0.51718 -0.793709 1430290.0
141 -0.03595 8.83423e-05 1600.65 273.121 5.02452 5.02435 -0.532019 -0.847363 1430340.0
142 -0.03585 8.83423e-05 1600.65 273.125 5.02459 5.02447 -0.53479 -0.833427 1430400.0
143 -0.03575 8.83421e-05 1600.65 273.124 5.02455 5.02442 -0.585502 -0.934746 1430580.0
144 -0.03565 8.83423e-05 1600.65 273.125 5.02457 5.02449 -0.555411 -0.893165 1430610.0
145 -0.03555 8.83422e-05 1600.64 273.123 5.02454 5.02443 -0.593831 -0.905642 1430650.0
146 -0.03545 8.83422e-05 1600.65 273.128 5.02462 5.02454 -0.642867 -1.01189 1430840.0
147 -0.03535 8.8342e-05 1600.65 273.124 5.02455 5.02447 -0.629868 -0.990645 1430810.0
148 -0.03525 8.83425e-05 1600.64 273.125 5.0246 5.02446 -0.643612 -1.01592 1430860.0
149 -0.03515 8.83415e-05 1600.65 273.126 5.02455 5.02455 -0.641772 -1.04431 1430960.0
150 -0.03505 8.83435e-05 1600.64 273.126 5.02467 5.02468 -0.657167 -1.04743 1431070.0
151 -0.03495 8.83417e-05 1600.64 273.123 5.02452 5.02443 -0.663099 -1.05301 1430980.0
152 -0.03485 8.8342e-05 1600.65 273.126 5.02458 5.02451 -0.671524 -1.04102 1431090.0
153 -0.03475 8.83426e-05 1600.65 273.128 5.02465 5.02461 -0.717052 -1.10841 1431370.0
154 -0.03465 8.83421e-05 1600.65 273.128 5.02462 5.02452 -0.720148 -1.1111 1431340.0
155 -0.03455 8.83425e-05 1600.65 273.128 5.02464 5.02448 -0.714273 -1.06626 1431280.0
156 -0.03445 8.83414e-05 1600.65 273.127 5.02458 5.02444 -0.72179 -1.10092 1431370.0
157 -0.03435 8.83421e-05 1600.65 273.126 5.0246 5.02449 -0.725624 -1.06555 1431420.0
158 -0.03425 8.83427e-05 1600.65 273.126 5.02462 5.02443 -0.703636 -1.02659 1431360.0
159 -0.03415 8.83419e-05 1600.65 273.128 5.02461 5.02438 -0.725024 -1.07793 1431430.0
160 -0.03405 8.83423e-05 1600.65 273.127 5.02461 5.02445 -0.743186 -1.07672 1431550.0
161 -0.03395 8.83416e-05 1600.64 273.128 5.02459 5.02441 -0.777796 -1.15211 1431640.0
162 -0.03385 8.83426e-05 1600.65 273.13 5.02468 5.02457 -0.844754 -1.25543 1431890.0
163 -0.03375 8.83427e-05 1600.65 273.13 5.0247 5.02452 -0.835982 -1.23126 1431940.0
164 -0.03365 8.83416e-05 1600.64 273.132 5.02467 5.02461 -0.87569 -1.27367 1432070.0
165 -0.03355 8.83424e-05 1600.65 273.132 5.02471 5.02467 -0.916181 -1.36492 1432290.0
166 -0.03345 8.83416e-05 1600.64 273.131 5.02466 5.02466 -0.916552 -1.37812 1432350.0
167 -0.03335 8.83428e-05 1600.65 273.135 5.0248 5.02482 -0.956174 -1.41309 1432570.0
168 -0.03325 8.83424e-05 1600.65 273.133 5.02474 5.02478 -0.960923 -1.43498 1432560.0
169 -0.03315 8.83424e-05 1600.64 273.135 5.02477 5.02484 -1.03224 -1.50106 1432840.0
170 -0.03305 8.83415e-05 1600.64 273.137 5.02476 5.02491 -1.09791 -1.61562 1433080.0
171 -0.03295 8.83425e-05 1600.64 273.137 5.02482 5.02496 -1.16686 -1.65823 1433370.0
172 -0.03285 8.83432e-05 1600.64 273.138 5.02488 5.02502 -1.1175 -1.65899 1433370.0
173 -0.03275 8.83422e-05 1600.64 273.137 5.0248 5.02501 -1.15284 -1.7182 1433450.0
174 -0.03265 8.83423e-05 1600.64 273.14 5.02485 5.025 -1.19775 -1.7787 1433670.0
175 -0.03255 8.83425e-05 1600.64 273.139 5.02486 5.02512 -1.22213 -1.82911 1433880.0
176 -0.03245 8.83421e-05 1600.64 273.139 5.02483 5.02498 -1.20157 -1.7942 1433810.0
177 -0.03235 8.83428e-05 1600.64 273.139 5.02487 5.0251 -1.24556 -1.85616 1434000.0
178 -0.03225 8.83427e-05 1600.64 273.139 5.02486 5.02512 -1.24504 -1.87058 1434110.0
179 -0.03215 8.8343e-05 1600.64 273.144 5.02496 5.02524 -1.2709 -1.90202 1434250.0
180 -0.03205 8.83422e-05 1600.64 273.141 5.02487 5.02517 -1.32758 -1.95424 1434460.0
181 -0.03195 8.8343e-05 1600.64 273.143 5.02495 5.02518 -1.40517 -2.04378 1434720.0
182 -0.03185 8.83426e-05 1600.64 273.145 5.02497 5.02524 -1.48773 -2.14299 1435060.0
183 -0.03175 8.83424e-05 1600.64 273.143 5.02492 5.02516 -1.48733 -2.15433 1435190.0
184 -0.03165 8.83426e-05 1600.64 273.145 5.02496 5.02519 -1.50109 -2.16754 1435310.0
185 -0.03155 8.83431e-05 1600.64 273.148 5.02505 5.02539 -1.56315 -2.24718 1435660.0
186 -0.03145 8.83423e-05 1600.64 273.148 5.025 5.0254 -1.6113 -2.32842 1435890.0
187 -0.03135 8.8342e-05 1600.64 273.149 5.02501 5.02534 -1.66996 -2.39389 1436060.0
188 -0.03125 8.83432e-05 1600.64 273.15 5.02509 5.02542 -1.72953 -2.49818 1436350.0
189 -0.03115 8.83429e-05 1600.64 273.15 5.02508 5.02546 -1.77719 -2.51979 1436550.0
190 -0.03105 8.8343e-05 1600.64 273.155 5.02517 5.02551 -1.79359 -2.59149 1436800.0
191 -0.03095 8.83423e-05 1600.64 273.156 5.02515 5.02563 -1.9121 -2.73731 1437270.0
192 -0.03085 8.83429e-05 1600.64 273.155 5.02516 5.02559 -1.9334 -2.8089 1437380.0
193 -0.03075 8.8343e-05 1600.64 273.16 5.02526 5.02577 -2.07583 -3.06323 1438080.0
194 -0.03065 8.8343e-05 1600.63 273.162 5.02531 5.02586 -2.1949 -3.21745 1438570.0
195 -0.03055 8.83425e-05 1600.64 273.162 5.02527 5.02585 -2.16672 -3.21796 1438630.0
196 -0.03045 8.8343e-05 1600.64 273.164 5.02533 5.02585 -2.23485 -3.2777 1438900.0
197 -0.03035 8.83427e-05 1600.64 273.164 5.02531 5.02575 -2.22235 -3.27569 1438870.0
198 -0.03025 8.83434e-05 1600.64 273.163 5.02534 5.02591 -2.29235 -3.40927 1439260.0
199 -0.03015 8.83423e-05 1600.64 273.168 5.02538 5.02598 -2.39206 -3.53899 1439650.0
200 -0.03005 8.83425e-05 1600.63 273.169 5.02541 5.02603 -2.42097 -3.61825 1439950.0
201 -0.02995 8.83426e-05 1600.63 273.171 5.02544 5.02604 -2.56397 -3.78953 1440520.0
202 -0.02985 8.83427e-05 1600.63 273.175 5.02552 5.02616 -2.64744 -3.89151 1440840.0
203 -0.02975 8.83435e-05 1600.63 273.174 5.02555 5.02628 -2.74525 -4.05523 1441440.0
204 -0.02965 8.83417e-05 1600.63 273.179 5.02554 5.0263 -2.85353 -4.19191 1441860.0
205 -0.02955 8.83435e-05 1600.63 273.181 5.02568 5.02654 -2.89254 -4.26751 1442260.0
206 -0.02945 8.83431e-05 1600.63 273.182 5.02567 5.02657 -3.05995 -4.50122 1442850.0
207 -0.02935 8.83435e-05 1600.63 273.181 5.02568 5.02659 -3.10619 -4.56789 1443290.0
208 -0.02925 8.83433e-05 1600.63 273.187 5.02577 5.0267 -3.15026 -4.67296 1443700.0
209 -0.02915 8.83424e-05 1600.63 273.187 5.02572 5.02667 -3.27242 -4.85175 1444200.0
210 -0.02905 8.83432e-05 1600.63 273.19 5.02582 5.0268 -3.3703 -4.94547 1444780.0
211 -0.02895 8.83436e-05 1600.63 273.193 5.02591 5.02705 -3.52063 -5.17936 1445480.0
212 -0.02885 8.83429e-05 1600.62 273.194 5.02589 5.02698 -3.62972 -5.33443 1445990.0
213 -0.02875 8.83429e-05 1600.63 273.197 5.02594 5.02705 -3.68812 -5.40253 1446330.0
214 -0.02865 8.83438e-05 1600.63 273.199 5.02603 5.02709 -3.80636 -5.61039 1446950.0
215 -0.02855 8.83429e-05 1600.63 273.199 5.02597 5.02708 -3.85489 -5.68005 1447260.0
216 -0.02845 8.83432e-05 1600.63 273.203 5.02607 5.02714 -3.93977 -5.85175 1447910.0
217 -0.02835 8.8343e-05 1600.63 273.203 5.02606 5.0271 -3.99856 -5.88025 1448260.0
218 -0.02825 8.83432e-05 1600.63 273.205 5.02611 5.02723 -3.99593 -5.95105 1448500.0
219 -0.02815 8.83428e-05 1600.62 273.209 5.02615 5.02732 -4.26885 -6.33608 1449660.0
220 -0.02805 8.83434e-05 1600.63 273.212 5.02624 5.02737 -4.33049 -6.44395 1450000.0
221 -0.02795 8.8343e-05 1600.62 273.217 5.0263 5.02762 -4.51535 -6.71137 1451030.0
222 -0.02785 8.83436e-05 1600.62 273.221 5.02643 5.02786 -4.75332 -7.04847 1452060.0
223 -0.02775 8.83438e-05 1600.62 273.223 5.02647 5.02794 -4.85591 -7.24132 1452460.0
224 -0.02765 8.83428e-05 1600.62 273.23 5.02653 5.02806 -5.10655 -7.56418 1453760.0
225 -0.02755 8.83431e-05 1600.62 273.237 5.02669 5.02837 -5.38339 -7.88469 1454750.0
226 -0.02745 8.83436e-05 1600.62 273.241 5.02679 5.02852 -5.62401 -8.33771 1456140.0
227 -0.02735 8.83447e-05 1600.62 273.244 5.0269 5.02857 -5.66539 -8.41047 1456380.0
228 -0.02725 8.83429e-05 1600.62 273.247 5.02686 5.02863 -5.83088 -8.59724 1457170.0
229 -0.02715 8.83438e-05 1600.61 273.255 5.02706 5.0289 -6.16902 -9.14853 1458720.0
230 -0.02705 8.83438e-05 1600.61 273.256 5.02708 5.02904 -6.33194 -9.39643 1459660.0
231 -0.02695 8.83437e-05 1600.61 273.262 5.02719 5.02914 -6.50448 -9.64052 1460500.0
232 -0.02685 8.8344e-05 1600.61 273.267 5.02729 5.02935 -6.68869 -9.90208 1461480.0
233 -0.02675 8.83437e-05 1600.61 273.274 5.0274 5.02962 -7.08047 -10.4348 1463150.0
234 -0.02665 8.83435e-05 1600.61 273.284 5.02758 5.02988 -7.45645 -10.9283 1464730.0
235 -0.02655 8.83447e-05 1600.61 273.29 5.02776 5.03016 -7.75425 -11.3768 1466160.0
236 -0.02645 8.83445e-05 1600.61 273.297 5.02786 5.03038 -7.91451 -11.6911 1467160.0
237 -0.02635 8.83442e-05 1600.6 273.298 5.02788 5.0304 -8.09262 -11.9743 1468110.0
238 -0.02625 8.83442e-05 1600.6 273.307 5.02804 5.03066 -8.43766 -12.4878 1469570.0
239 -0.02615 8.83448e-05 1600.6 273.314 5.0282 5.03088 -8.68703 -12.8476 1470930.0
240 -0.02605 8.83445e-05 1600.6 273.319 5.02827 5.0311 -8.9971 -13.3344 1472290.0
241 -0.02595 8.83455e-05 1600.6 273.323 5.0284 5.0313 -9.13286 -13.6143 1473190.0
242 -0.02585 8.83445e-05 1600.6 273.329 5.02847 5.03144 -9.46332 -14.1282 1474840.0
243 -0.02575 8.83455e-05 1600.6 273.344 5.0288 5.03193 -9.94738 -14.7461 1477030.0
244 -0.02565 8.8345e-05 1600.59 273.348 5.02884 5.03209 -10.2136 -15.2126 1478480.0
245 -0.02555 8.83452e-05 1600.59 273.355 5.02899 5.03231 -10.6024 -15.6324 1480140.0
246 -0.02545 8.8345e-05 1600.59 273.367 5.02918 5.0327 -10.9929 -16.2477 1481940.0
247 -0.02535 8.83454e-05 1600.59 273.369 5.02924 5.03273 -11.1185 -16.5608 1482900.0
248 -0.02525 8.83456e-05 1600.58 273.38 5.02946 5.03316 -11.6287 -17.3226 1485440.0
249 -0.02515 8.8346e-05 1600.58 273.388 5.02962 5.03338 -11.8942 -17.6372 1486920.0
250 -0.02505 8.83451e-05 1600.58 273.395 5.02971 5.03358 -12.3149 -18.3669 1488910.0
251 -0.02495 8.83461e-05 1600.58 273.403 5.02992 5.03371 -12.6363 -18.7489 1490590.0
252 -0.02485 8.83461e-05 1600.58 273.416 5.03014 5.03409 -13.1616 -19.4398 1492950.0
253 -0.02475 8.83463e-05 1600.58 273.426 5.03035 5.03438 -13.6157 -20.0722 1495060.0
254 -0.02465 8.8346e-05 1600.58 273.433 5.03046 5.03453 -13.8277 -20.4245 1496520.0
255 -0.02455 8.8346e-05 1600.57 273.443 5.03064 5.03493 -14.4162 -21.3562 1499030.0
256 -0.02445 8.8347e-05 1600.57 273.459 5.03099 5.03542 -14.9257 -22.04 1501500.0
257 -0.02435 8.83469e-05 1600.57 273.474 5.03127 5.03591 -15.6695 -22.9245 1504830.0
258 -0.02425 8.83468e-05 1600.56 273.489 5.03153 5.03636 -16.2667 -23.8653 1507760.0
259 -0.02415 8.83471e-05 1600.56 273.495 5.03167 5.03673 -16.6275 -24.5105 1509840.0
260 -0.02405 8.8347e-05 1600.56 273.508 5.03189 5.03712 -17.1929 -25.4092 1512680.0
261 -0.02395 8.83467e-05 1600.55 273.523 5.03215 5.03765 -17.7538 -26.2011 1515560.0
262 -0.02385 8.83481e-05 1600.55 273.536 5.03248 5.03812 -18.3822 -27.0922 1518540.0
263 -0.02375 8.83473e-05 1600.55 273.549 5.03267 5.03853 -18.8587 -27.8613 1521000.0
264 -0.02365 8.83472e-05 1600.54 273.565 5.03296 5.03905 -19.6128 -28.9561 1524570.0
265 -0.02355 8.83483e-05 1600.54 273.582 5.03334 5.03966 -20.2865 -30.0394 1527820.0
266 -0.02345 8.8348e-05 1600.54 273.597 5.03358 5.04013 -21.0018 -31.0008 1531260.0
267 -0.02335 8.83484e-05 1600.53 273.612 5.03389 5.04057 -21.6419 -31.9677 1534450.0
268 -0.02325 8.83486e-05 1600.53 273.634 5.03429 5.04125 -22.5203 -33.2681 1538400.0
269 -0.02315 8.83491e-05 1600.52 273.648 5.03459 5.04188 -23.1963 -34.4043 1542010.0
270 -0.02305 8.83486e-05 1600.52 273.669 5.03494 5.04254 -24.0195 -35.6 1545940.0
271 -0.02295 8.83501e-05 1600.51 273.687 5.03537 5.04325 -24.8675 -36.8923 1550070.0
272 -0.02285 8.83487e-05 1600.51 273.716 5.03582 5.04408 -26.0621 -38.6092 1555310.0
273 -0.02275 8.835e-05 1600.5 273.728 5.03611 5.04443 -26.5509 -39.3773 1558220.0
274 -0.02265 8.835e-05 1600.5 273.746 5.03645 5.04496 -27.3523 -40.5502 1562360.0
275 -0.02255 8.83503e-05 1600.5 273.775 5.03699 5.04594 -28.6296 -42.3685 1568170.0
276 -0.02245 8.83508e-05 1600.49 273.796 5.03741 5.04668 -29.5512 -43.8196 1572570.0
277 -0.02235 8.83512e-05 1600.48 273.824 5.03795 5.04755 -30.7796 -45.5167 1578300.0
278 -0.02225 8.83507e-05 1600.48 273.847 5.03834 5.04829 -31.7649 -47.017 1583210.0
279 -0.02215 8.83514e-05 1600.47 273.87 5.03881 5.04908 -32.7911 -48.7138 1588430.0
280 -0.02205 8.83521e-05 1600.47 273.895 5.03931 5.04992 -33.8519 -50.2916 1593660.0
281 -0.02195 8.83521e-05 1600.46 273.928 5.03991 5.05083 -35.2356 -52.1864 1599900.0
282 -0.02185 8.83522e-05 1600.45 273.96 5.04051 5.05204 -36.7286 -54.4056 1607130.0
283 -0.02175 8.8353e-05 1600.45 273.993 5.04115 5.05308 -38.0646 -56.242 1613220.0
284 -0.02165 8.83533e-05 1600.44 274.024 5.04175 5.05409 -39.4124 -58.3426 1619910.0
285 -0.02155 8.8354e-05 1600.43 274.052 5.04231 5.05518 -40.7228 -60.1869 1626050.0
286 -0.02145 8.83538e-05 1600.42 274.082 5.04285 5.05599 -41.9592 -62.0026 1632530.0
287 -0.02135 8.83552e-05 1600.41 274.127 5.04375 5.05753 -43.9737 -64.8321 1641490.0
288 -0.02125 8.83544e-05 1600.41 274.156 5.04425 5.05839 -45.1795 -66.7346 1647870.0
289 -0.02115 8.8356e-05 1600.4 274.204 5.04521 5.05993 -47.2198 -69.5137 1657050.0
290 -0.02105 8.83558e-05 1600.39 274.246 5.04597 5.06131 -49.1114 -72.2829 1665870.0
291 -0.02095 8.83564e-05 1600.38 274.291 5.04684 5.06283 -50.9163 -75.1542 1674780.0
292 -0.02085 8.83571e-05 1600.37 274.323 5.04746 5.06387 -52.3103 -77.2991 1681820.0
293 -0.02075 8.83575e-05 1600.36 274.369 5.04833 5.0653 -54.4351 -80.2691 1691830.0
294 -0.02065 8.83576e-05 1600.35 274.405 5.04901 5.06654 -55.953 -82.6902 1699640.0
295 -0.02055 8.83587e-05 1600.34 274.456 5.05002 5.06817 -58.181 -85.8566 1710020.0
296 -0.02045 8.83597e-05 1600.33 274.496 5.05079 5.06951 -59.9179 -88.5799 1719130.0
297 -0.02035 8.83598e-05 1600.32 274.549 5.05178 5.07125 -62.2331 -91.8852 1729920.0
298 -0.02025 8.83598e-05 1600.3 274.613 5.05295 5.07323 -64.9663 -95.7341 1742450.0
299 -0.02015 8.83618e-05 1600.29 274.679 5.05429 5.0755 -67.8113 -99.8159 1755730.0
300 -0.02005 8.83619e-05 1600.27 274.731 5.05525 5.07719 -70.118 -103.419 1766990.0
301 -0.01995 8.83631e-05 1600.26 274.79 5.05641 5.0791 -72.5678 -106.969 1778990.0
302 -0.01985 8.83635e-05 1600.24 274.859 5.0577 5.08134 -75.6214 -111.226 1792920.0
303 -0.01975 8.83638e-05 1600.23 274.914 5.05873 5.08315 -78.069 -115.021 1805520.0
304 -0.01965 8.83651e-05 1600.22 274.963 5.0597 5.08479 -80.0326 -118.301 1815890.0
305 -0.01955 8.83666e-05 1600.2 275.039 5.06118 5.08754 -83.4069 -123.313 1831430.0
306 -0.01945 8.83666e-05 1600.19 275.107 5.06244 5.08976 -86.3412 -127.769 1845870.0
307 -0.01935 8.83683e-05 1600.17 275.177 5.06382 5.09214 -89.4165 -132.414 1860560.0
308 -0.01925 8.83688e-05 1600.15 275.251 5.06521 5.09452 -92.4785 -136.941 1875470.0
309 -0.01915 8.83694e-05 1600.13 275.322 5.06656 5.09691 -95.7019 -141.841 1891470.0
310 -0.01905 8.83707e-05 1600.12 275.418 5.06839 5.09985 -99.844 -147.489 1910660.0
311 -0.01895 8.83717e-05 1600.1 275.493 5.06982 5.10238 -103.065 -152.442 1926830.0
312 -0.01885 8.83726e-05 1600.08 275.583 5.07155 5.10535 -107.009 -158.312 1945320.0
313 -0.01875 8.83743e-05 1600.06 275.673 5.07328 5.10844 -110.747 -164.029 1963540.0
314 -0.01865 8.83752e-05 1600.03 275.769 5.07511 5.11159 -115.042 -170.258 1983970.0
315 -0.01855 8.83771e-05 1600.01 275.863 5.07695 5.11462 -119.046 -176.085 2003170.0
316 -0.01845 8.83772e-05 1599.99 275.952 5.0786 5.11787 -122.992 -182.492 2022610.0
317 -0.01835 8.83788e-05 1599.97 276.044 5.08037 5.12094 -126.957 -188.588 2042400.0
318 -0.01825 8.83803e-05 1599.94 276.161 5.08262 5.12499 -131.946 -196.181 2065870.0
319 -0.01815 8.8382e-05 1599.91 276.276 5.08483 5.1288 -136.878 -203.213 2089010.0
320 -0.01805 8.83835e-05 1599.88 276.407 5.08733 5.13312 -142.656 -211.654 2115670.0
321 -0.01795 8.83851e-05 1599.85 276.541 5.08989 5.13761 -148.356 -219.998 2142460.0
322 -0.01785 8.83868e-05 1599.82 276.666 5.09229 5.14175 -153.874 -228.211 2168820.0
323 -0.01775 8.83891e-05 1599.79 276.796 5.09482 5.14599 -159.266 -236.2 2194470.0
324 -0.01765 8.83902e-05 1599.76 276.941 5.09755 5.15063 -165.725 -245.435 2225030.0
325 -0.01755 8.83914e-05 1599.72 277.086 5.10029 5.15552 -171.941 -254.811 2254560.0
326 -0.01745 8.83948e-05 1599.69 277.244 5.10338 5.16072 -178.6 -264.506 2285870.0
327 -0.01735 8.8396e-05 1599.65 277.403 5.10638 5.16601 -185.662 -275.071 2319550.0
328 -0.01725 8.83976e-05 1599.62 277.53 5.10881 5.17024 -191.227 -283.716 2348120.0
329 -0.01715 8.84001e-05 1599.58 277.695 5.112 5.17585 -198.196 -294.207 2381840.0
330 -0.01705 8.84024e-05 1599.55 277.85 5.11498 5.18105 -205.007 -304.427 2415010.0
331 -0.01695 8.84046e-05 1599.5 278.055 5.11888 5.1878 -213.827 -317.133 2455460.0
332 -0.01685 8.84068e-05 1599.45 278.242 5.12246 5.19408 -221.944 -329.077 2493910.0
333 -0.01675 8.84099e-05 1599.41 278.42 5.12591 5.20053 -229.652 -341.34 2532100.0
334 -0.01665 8.8412e-05 1599.36 278.623 5.12978 5.20739 -238.384 -354.425 2572890.0
335 -0.01655 8.84158e-05 1599.31 278.83 5.1338 5.21438 -247.269 -367.639 2615060.0
336 -0.01645 8.84184e-05 1599.26 279.062 5.13822 5.22188 -257.437 -382.353 2662740.0
337 -0.01635 8.84205e-05 1599.21 279.26 5.142 5.22876 -265.977 -395.596 2704690.0
338 -0.01625 8.84228e-05 1599.16 279.488 5.14633 5.23634 -275.753 -410.15 2751250.0
339 -0.01615 8.84268e-05 1599.1 279.732 5.15105 5.24471 -286.327 -426.03 2801070.0
340 -0.01605 8.84306e-05 1599.04 279.996 5.15614 5.25362 -297.699 -442.928 2854510.0
341 -0.01595 8.8433e-05 1598.97 280.263 5.1612 5.26222 -309.345 -459.662 2909370.0
342 -0.01585 8.84375e-05 1598.91 280.543 5.16661 5.27194 -321.221 -477.807 2965440.0
343 -0.01575 8.84409e-05 1598.84 280.813 5.17178 5.28067 -333.039 -495.021 3021670.0
344 -0.01565 8.84442e-05 1598.77 281.105 5.17735 5.29087 -345.642 -514.347 3082240.0
345 -0.01555 8.84486e-05 1598.7 281.417 5.18336 5.30156 -359.005 -534.405 3145000.0
346 -0.01545 8.84534e-05 1598.62 281.741 5.18961 5.31232 -373.165 -555.111 3211610.0
347 -0.01535 8.84561e-05 1598.55 282.064 5.19572 5.32301 -386.909 -575.429 3276700.0
348 -0.01525 8.84618e-05 1598.46 282.423 5.20266 5.33492 -402.596 -598.147 3350250.0
349 -0.01515 8.84667e-05 1598.38 282.794 5.20978 5.34778 -418.446 -622.149 3424520.0
350 -0.01505 8.84701e-05 1598.29 283.131 5.2162 5.35905 -433.178 -644.585 3496330.0
351 -0.01495 8.84764e-05 1598.2 283.529 5.22391 5.37242 -450.234 -669.604 3575870.0