ITEM: TIMESTEP
20000
ITEM: NUMBER OF CELLS
800
ITEM: BOX BOUNDS os pp pp
-0.05 0.03
-0.001 0.001
-0.001 0.001
ITEM: CELLS id f_1[1] f_1[2] f_1[3] f_1[4] f_1[5] f_1[6] f_1[7] f_1[8] f_1[9] 
1 -0.04995 8.83415e-05 1600.66 273.111 5.02427 5.02326 -0.152288 -0.134108 1.42665e+06 
2 -0.04985 8.83419e-05 1600.66 273.111 5.0243 5.02327 -0.139624 -0.113419 1.42667e+06 
3 -0.04975 8.83408e-05 1600.66 273.112 5.02425 5.02323 -0.155119 -0.125347 1.42673e+06 
4 -0.04965 8.83418e-05 1600.66 273.113 5.02434 5.02334 -0.162796 -0.153038 1.42682e+06 
5 -0.04955 8.8342e-05 1600.66 273.113 5.02434 5.02334 -0.184522 -0.172213 1.42687e+06 
6 -0.04945 8.83416e-05 1600.66 273.11 5.02428 5.02329 -0.213337 -0.215246 1.42692e+06 
7 -0.04935 8.83414e-05 1600.65 273.114 5.02434 5.0234 -0.215044 -0.239292 1.42706e+06 
8 -0.04925 8.83419e-05 1600.66 273.114 5.02435 5.02347 -0.250776 -0.303891 1.42709e+06 
9 -0.04915 8.83415e-05 1600.65 273.113 5.02432 5.02344 -0.242377 -0.304835 1.42716e+06 
10 -0.04905 8.83415e-05 1600.65 273.114 5.02434 5.02356 -0.296354 -0.405605 1.42725e+06 
11 -0.04895 8.83421e-05 1600.65 273.117 5.02442 5.02365 -0.305265 -0.475705 1.42733e+06 
12 -0.04885 8.83415e-05 1600.65 273.113 5.02432 5.02366 -0.324528 -0.496101 1.42738e+06 
13 -0.04875 8.83415e-05 1600.65 273.117 5.02439 5.0237 -0.357535 -0.572797 1.42744e+06 
14 -0.04865 8.8342e-05 1600.65 273.117 5.02442 5.02382 -0.367179 -0.599814 1.42752e+06 
15 -0.04855 8.83415e-05 1600.65 273.118 5.0244 5.02382 -0.386529 -0.603473 1.42757e+06 
16 -0.04845 8.83416e-05 1600.65 273.117 5.0244 5.02379 -0.377015 -0.603651 1.42759e+06 
17 -0.04835 8.83423e-05 1600.65 273.118 5.02446 5.02386 -0.413092 -0.674003 1.42764e+06 
18 -0.04825 8.83412e-05 1600.65 273.119 5.0244 5.02383 -0.443576 -0.699696 1.42767e+06 
19 -0.04815 8.8342e-05 1600.65 273.119 5.02446 5.02399 -0.412228 -0.697304 1.42777e+06 
20 -0.04805 8.83415e-05 1600.65 273.118 5.0244 5.02399 -0.417192 -0.738414 1.42779e+06 
21 -0.04795 8.83417e-05 1600.65 273.118 5.02443 5.02397 -0.417408 -0.74385 1.4278e+06 
22 -0.04785 8.83422e-05 1600.65 273.117 5.02444 5.02399 -0.406106 -0.730497 1.42782e+06 
23 -0.04775 8.83416e-05 1600.65 273.121 5.02446 5.02402 -0.399239 -0.736586 1.42785e+06 
24 -0.04765 8.83423e-05 1600.65 273.117 5.02443 5.02402 -0.396998 -0.739694 1.42785e+06 
25 -0.04755 8.83418e-05 1600.65 273.118 5.02442 5.02405 -0.415458 -0.743646 1.42788e+06 
34 -0.04665 8.8342e-05 1600.65 273.117 5.02442 5.02429 -0.388771 -0.718238 1.42805e+06 
33 -0.04675 8.83412e-05 1600.65 273.118 5.02439 5.0242 -0.394642 -0.765111 1.42802e+06 
35 -0.04655 8.83421e-05 1600.65 273.116 5.02441 5.02432 -0.396741 -0.759047 1.42805e+06 
36 -0.04645 8.83418e-05 1600.65 273.117 5.02441 5.02432 -0.385021 -0.752786 1.4281e+06 
37 -0.04635 8.83422e-05 1600.65 273.117 5.02443 5.02434 -0.391712 -0.732838 1.42811e+06 
38 -0.04625 8.8342e-05 1600.65 273.117 5.02441 5.02431 -0.41991 -0.749611 1.42817e+06 
39 -0.04615 8.83418e-05 1600.65 273.119 5.02445 5.02439 -0.424111 -0.786225 1.42823e+06 
40 -0.04605 8.83419e-05 1600.65 273.116 5.0244 5.0244 -0.431615 -0.791822 1.42825e+06 
41 -0.04595 8.83421e-05 1600.65 273.117 5.02443 5.02454 -0.448379 -0.803635 1.42836e+06 
42 -0.04585 8.83418e-05 1600.65 273.118 5.02442 5.02443 -0.443391 -0.816428 1.42831e+06 
43 -0.04575 8.83414e-05 1600.65 273.119 5.02442 5.02451 -0.441627 -0.789168 1.42836e+06 
44 -0.04565 8.83423e-05 1600.65 273.12 5.02448 5.02453 -0.44443 -0.794243 1.42835e+06 
45 -0.04555 8.83415e-05 1600.65 273.118 5.02441 5.02445 -0.468073 -0.824067 1.42833e+06 
46 -0.04545 8.83422e-05 1600.65 273.119 5.02447 5.02456 -0.462473 -0.804225 1.42839e+06 
47 -0.04535 8.83419e-05 1600.65 273.119 5.02444 5.02445 -0.46782 -0.793308 1.42841e+06 
48 -0.04525 8.83422e-05 1600.65 273.118 5.02445 5.02446 -0.46764 -0.818253 1.42839e+06 
49 -0.04515 8.83412e-05 1600.65 273.118 5.0244 5.02445 -0.478606 -0.814785 1.42842e+06 
50 -0.04505 8.83429e-05 1600.65 273.122 5.02455 5.0246 -0.460902 -0.789014 1.42849e+06 
26 -0.04745 8.83421e-05 1600.65 273.118 5.02444 5.02415 -0.429397 -0.742946 1.42794e+06 
27 -0.04735 8.83419e-05 1600.65 273.118 5.02443 5.02401 -0.41132 -0.74783 1.4279e+06 
28 -0.04725 8.8342e-05 1600.65 273.119 5.02445 5.02414 -0.391625 -0.710813 1.42797e+06 
29 -0.04715 8.83417e-05 1600.65 273.117 5.0244 5.02409 -0.417106 -0.752584 1.42797e+06 
30 -0.04705 8.8342e-05 1600.65 273.118 5.02443 5.0242 -0.407047 -0.738898 1.42798e+06 
31 -0.04695 8.83411e-05 1600.65 273.117 5.02436 5.0241 -0.402241 -0.730124 1.42795e+06 
32 -0.04685 8.83429e-05 1600.65 273.116 5.02445 5.02422 -0.403293 -0.733087 1.42799e+06 
67 -0.04335 8.83415e-05 1600.65 273.119 5.02443 5.0242 -0.464851 -0.725413 1.42851e+06 
65 -0.04355 8.8342e-05 1600.65 273.121 5.02448 5.02441 -0.463109 -0.727446 1.42855e+06 
66 -0.04345 8.83411e-05 1600.65 273.117 5.02437 5.02427 -0.476526 -0.744295 1.4285e+06 
68 -0.04325 8.83417e-05 1600.65 273.118 5.02443 5.0243 -0.44942 -0.71873 1.42851e+06 
69 -0.04315 8.83419e-05 1600.65 273.118 5.02443 5.02429 -0.453902 -0.708214 1.42852e+06 
70 -0.04305 8.83421e-05 1600.65 273.118 5.02445 5.02428 -0.486826 -0.726347 1.42852e+06 
71 -0.04295 8.83411e-05 1600.65 273.118 5.02438 5.02424 -0.461376 -0.690228 1.42852e+06 
72 -0.04285 8.83419e-05 1600.65 273.116 5.0244 5.02411 -0.481302 -0.65893 1.42846e+06 
73 -0.04275 8.83413e-05 1600.65 273.117 5.02438 5.024 -0.440074 -0.619836 1.42841e+06 
74 -0.04265 8.83416e-05 1600.65 273.117 5.02439 5.02395 -0.436078 -0.580637 1.42839e+06 
75 -0.04255 8.83408e-05 1600.65 273.117 5.02436 5.02397 -0.429384 -0.57174 1.42842e+06 
51 -0.04495 8.83417e-05 1600.65 273.118 5.02443 5.02447 -0.464155 -0.785038 1.42841e+06 
52 -0.04485 8.83413e-05 1600.65 273.116 5.02436 5.02441 -0.459582 -0.763053 1.42839e+06 
53 -0.04475 8.83424e-05 1600.65 273.12 5.0245 5.02452 -0.460396 -0.739388 1.42845e+06 
54 -0.04465 8.8341e-05 1600.65 273.117 5.02436 5.02445 -0.450818 -0.737698 1.42846e+06 
55 -0.04455 8.83421e-05 1600.65 273.119 5.02446 5.02444 -0.444962 -0.674206 1.42842e+06 
56 -0.04445 8.83409e-05 1600.65 273.12 5.02441 5.02438 -0.448733 -0.706579 1.42842e+06 
57 -0.04435 8.83417e-05 1600.65 273.117 5.0244 5.02442 -0.451042 -0.695795 1.42845e+06 
58 -0.04425 8.83416e-05 1600.65 273.118 5.02442 5.02443 -0.458397 -0.720122 1.42848e+06 
59 -0.04415 8.83413e-05 1600.65 273.118 5.02441 5.02437 -0.458698 -0.710286 1.42846e+06 
60 -0.04405 8.8342e-05 1600.65 273.119 5.02446 5.02447 -0.457076 -0.714288 1.4285e+06 
61 -0.04395 8.83416e-05 1600.65 273.119 5.02443 5.02441 -0.447675 -0.705292 1.4285e+06 
62 -0.04385 8.83414e-05 1600.65 273.118 5.02439 5.02431 -0.473966 -0.730592 1.42849e+06 
63 -0.04375 8.83421e-05 1600.65 273.12 5.02448 5.0244 -0.475877 -0.728783 1.42854e+06 
64 -0.04365 8.83411e-05 1600.65 273.116 5.02434 5.02421 -0.469412 -0.722234 1.42846e+06 
100 -0.04005 8.83414e-05 1600.66 273.116 5.02436 5.02375 -0.413462 -0.451453 1.4286e+06 
97 -0.04035 8.83417e-05 1600.66 273.115 5.02436 5.02375 -0.408574 -0.437617 1.42859e+06 
98 -0.04025 8.83417e-05 1600.65 273.115 5.02437 5.02381 -0.39916 -0.428684 1.42861e+06 
99 -0.04015 8.8341e-05 1600.66 273.115 5.02433 5.02368 -0.39916 -0.439322 1.42859e+06 
76 -0.04245 8.83415e-05 1600.65 273.114 5.02433 5.02394 -0.412045 -0.57504 1.42841e+06 
77 -0.04235 8.8341e-05 1600.65 273.115 5.02433 5.024 -0.433817 -0.545161 1.42842e+06 
78 -0.04225 8.8342e-05 1600.65 273.117 5.02441 5.02398 -0.392784 -0.508408 1.42839e+06 
79 -0.04215 8.83412e-05 1600.65 273.115 5.02432 5.02382 -0.398079 -0.492878 1.42837e+06 
80 -0.04205 8.83411e-05 1600.65 273.116 5.02435 5.02386 -0.362385 -0.437458 1.42833e+06 
81 -0.04195 8.8341e-05 1600.65 273.114 5.02431 5.02378 -0.379229 -0.405099 1.42829e+06 
82 -0.04185 8.83415e-05 1600.65 273.114 5.02433 5.02381 -0.406088 -0.491531 1.42838e+06 
83 -0.04175 8.83414e-05 1600.66 273.116 5.02436 5.02382 -0.379656 -0.421156 1.42837e+06 
84 -0.04165 8.83413e-05 1600.65 273.113 5.02431 5.02377 -0.413481 -0.433464 1.42839e+06 
85 -0.04155 8.83401e-05 1600.65 273.115 5.02428 5.02364 -0.37419 -0.413553 1.42831e+06 
86 -0.04145 8.83425e-05 1600.66 273.113 5.02437 5.02375 -0.346927 -0.356647 1.42833e+06 
87 -0.04135 8.83413e-05 1600.65 273.113 5.02431 5.02368 -0.343494 -0.352645 1.42833e+06 
88 -0.04125 8.83413e-05 1600.66 273.115 5.02434 5.02381 -0.367154 -0.362998 1.42842e+06 
89 -0.04115 8.8341e-05 1600.65 273.114 5.0243 5.02371 -0.381725 -0.386225 1.42842e+06 
90 -0.04105 8.83412e-05 1600.65 273.114 5.02433 5.02372 -0.38198 -0.386642 1.42842e+06 
91 -0.04095 8.83418e-05 1600.66 273.117 5.0244 5.02385 -0.382881 -0.392712 1.42849e+06 
92 -0.04085 8.8341e-05 1600.65 273.115 5.02432 5.0237 -0.378222 -0.397988 1.42845e+06 
93 -0.04075 8.83414e-05 1600.66 273.114 5.02433 5.02366 -0.400252 -0.403308 1.42847e+06 
94 -0.04065 8.8341e-05 1600.65 273.115 5.02432 5.0237 -0.372839 -0.395456 1.42847e+06 
95 -0.04055 8.83421e-05 1600.65 273.114 5.02437 5.02375 -0.393346 -0.391143 1.42852e+06 
96 -0.04045 8.83412e-05 1600.66 273.114 5.02431 5.02368 -0.39248 -0.400476 1.42857e+06 
101 -0.03995 8.83425e-05 1600.66 273.114 5.02438 5.02368 -0.406332 -0.452379 1.42856e+06 
102 -0.03985 8.83416e-05 1600.66 273.114 5.02433 5.02372 -0.413341 -0.417043 1.4286e+06 
103 -0.03975 8.83413e-05 1600.66 273.115 5.02434 5.0237 -0.401563 -0.402598 1.42861e+06 
104 -0.03965 8.83419e-05 1600.65 273.114 5.02435 5.02368 -0.412948 -0.411387 1.42865e+06 
105 -0.03955 8.83418e-05 1600.66 273.117 5.0244 5.02388 -0.426749 -0.455097 1.42886e+06 
106 -0.03945 8.83404e-05 1600.66 273.114 5.02427 5.02363 -0.465488 -0.515473 1.42881e+06 
107 -0.03935 8.83423e-05 1600.66 273.115 5.0244 5.02378 -0.429083 -0.475173 1.42881e+06 
108 -0.03925 8.83416e-05 1600.66 273.115 5.02436 5.02374 -0.42519 -0.474198 1.42881e+06 
109 -0.03915 8.83414e-05 1600.66 273.115 5.02434 5.02379 -0.419919 -0.430881 1.4288e+06 
110 -0.03905 8.8341e-05 1600.65 273.113 5.0243 5.02365 -0.399529 -0.390244 1.42872e+06 
111 -0.03895 8.8341e-05 1600.66 273.114 5.02431 5.02371 -0.412451 -0.391372 1.42878e+06 
112 -0.03885 8.8341e-05 1600.66 273.113 5.02429 5.0236 -0.418263 -0.402339 1.42879e+06 
113 -0.03875 8.83412e-05 1600.66 273.115 5.02434 5.0237 -0.446897 -0.437121 1.42886e+06 
114 -0.03865 8.83403e-05 1600.65 273.116 5.02431 5.02365 -0.466846 -0.439264 1.42896e+06 
115 -0.03855 8.8341e-05 1600.66 273.115 5.02433 5.02366 -0.436382 -0.412171 1.42887e+06 
116 -0.03845 8.83413e-05 1600.66 273.114 5.02432 5.02365 -0.40578 -0.388044 1.42882e+06 
117 -0.03835 8.83409e-05 1600.66 273.114 5.02431 5.0236 -0.419001 -0.398628 1.42885e+06 
118 -0.03825 8.83407e-05 1600.66 273.114 5.0243 5.02358 -0.403025 -0.377625 1.42882e+06 
119 -0.03815 8.83411e-05 1600.66 273.114 5.0243 5.0236 -0.416196 -0.377434 1.42885e+06 
120 -0.03805 8.8341e-05 1600.66 273.118 5.02438 5.0237 -0.430291 -0.410953 1.42898e+06 
121 -0.03795 8.83409e-05 1600.66 273.115 5.02432 5.02364 -0.444449 -0.466652 1.42901e+06 
122 -0.03785 8.8341e-05 1600.65 273.112 5.02427 5.02366 -0.433464 -0.446723 1.42903e+06 
123 -0.03775 8.83406e-05 1600.66 273.115 5.0243 5.02366 -0.414699 -0.456389 1.429e+06 
124 -0.03765 8.83415e-05 1600.66 273.114 5.02434 5.02372 -0.402522 -0.43369 1.42907e+06 
125 -0.03755 8.8341e-05 1600.66 273.113 5.02429 5.02366 -0.40323 -0.414765 1.42905e+06 
134 -0.03665 8.83404e-05 1600.66 273.116 5.02431 5.02361 -0.489923 -0.568546 1.42936e+06 
129 -0.03715 8.83403e-05 1600.66 273.113 5.02425 5.02353 -0.476573 -0.528792 1.42918e+06 
130 -0.03705 8.83417e-05 1600.66 273.117 5.0244 5.02374 -0.4693 -0.519332 1.4293e+06 
131 -0.03695 8.83408e-05 1600.66 273.115 5.02431 5.0236 -0.513846 -0.572657 1.42929e+06 
132 -0.03685 8.83407e-05 1600.66 273.116 5.02433 5.02361 -0.527628 -0.602306 1.42937e+06 
133 -0.03675 8.83406e-05 1600.66 273.113 5.02427 5.02358 -0.478369 -0.546931 1.42932e+06 
135 -0.03655 8.83409e-05 1600.66 273.114 5.0243 5.02364 -0.504279 -0.606343 1.42949e+06 
136 -0.03645 8.83405e-05 1600.66 273.116 5.02432 5.02371 -0.529938 -0.59865 1.42963e+06 
137 -0.03635 8.83404e-05 1600.66 273.118 5.02434 5.02365 -0.563353 -0.670903 1.42965e+06 
138 -0.03625 8.83408e-05 1600.66 273.115 5.02432 5.02357 -0.516124 -0.603081 1.42956e+06 
139 -0.03615 8.83404e-05 1600.66 273.116 5.02432 5.02359 -0.538098 -0.619065 1.4297e+06 
140 -0.03605 8.83412e-05 1600.66 273.117 5.02438 5.02371 -0.531852 -0.611412 1.42982e+06 
141 -0.03595 8.83413e-05 1600.66 273.116 5.02436 5.02366 -0.572766 -0.647879 1.42985e+06 
142 -0.03585 8.83406e-05 1600.66 273.117 5.02434 5.02355 -0.567966 -0.67827 1.42992e+06 
143 -0.03575 8.83417e-05 1600.66 273.118 5.02441 5.02365 -0.605349 -0.686968 1.43001e+06 
144 -0.03565 8.83406e-05 1600.66 273.118 5.02435 5.02358 -0.566397 -0.65881 1.42995e+06 
145 -0.03555 8.8341e-05 1600.66 273.118 5.02439 5.02371 -0.614435 -0.752943 1.4302e+06 
146 -0.03545 8.83411e-05 1600.66 273.116 5.02435 5.02369 -0.617113 -0.784429 1.43014e+06 
147 -0.03535 8.83417e-05 1600.66 273.118 5.02441 5.02386 -0.586195 -0.737798 1.43018e+06 
148 -0.03525 8.83409e-05 1600.66 273.119 5.02439 5.02378 -0.58301 -0.759684 1.43021e+06 
149 -0.03515 8.83411e-05 1600.66 273.117 5.02438 5.02389 -0.60347 -0.789399 1.43032e+06 
150 -0.03505 8.83414e-05 1600.66 273.118 5.0244 5.0238 -0.593546 -0.767675 1.43029e+06 
126 -0.03745 8.83407e-05 1600.66 273.113 5.02428 5.02359 -0.445685 -0.47647 1.42908e+06 
127 -0.03735 8.83409e-05 1600.66 273.116 5.02434 5.02363 -0.46626 -0.495097 1.42918e+06 
128 -0.03725 8.83407e-05 1600.66 273.115 5.02431 5.02368 -0.476323 -0.538111 1.42921e+06 
167 -0.03335 8.83418e-05 1600.65 273.13 5.02465 5.0246 -1.09242 -1.44065 1.43257e+06 
161 -0.03395 8.83418e-05 1600.65 273.127 5.02459 5.02438 -0.954073 -1.20246 1.43189e+06 
162 -0.03385 8.83416e-05 1600.65 273.127 5.02457 5.02444 -0.976269 -1.26335 1.43205e+06 
163 -0.03375 8.83423e-05 1600.65 273.127 5.02461 5.02446 -0.970375 -1.27982 1.432e+06 
164 -0.03365 8.83414e-05 1600.65 273.126 5.02455 5.02441 -0.971574 -1.26094 1.43203e+06 
165 -0.03355 8.83424e-05 1600.65 273.126 5.02461 5.02448 -0.985279 -1.27694 1.43212e+06 
166 -0.03345 8.83416e-05 1600.65 273.126 5.02456 5.02446 -0.998597 -1.32897 1.43216e+06 
168 -0.03325 8.83421e-05 1600.65 273.129 5.02465 5.02466 -1.13341 -1.50311 1.43271e+06 
169 -0.03315 8.83418e-05 1600.65 273.131 5.02466 5.02459 -1.1726 -1.55851 1.43293e+06 
170 -0.03305 8.8342e-05 1600.65 273.132 5.0247 5.02467 -1.17656 -1.54867 1.43295e+06 
171 -0.03295 8.83414e-05 1600.65 273.128 5.02458 5.02447 -1.19741 -1.52129 1.43299e+06 
172 -0.03285 8.83426e-05 1600.65 273.134 5.02477 5.02475 -1.1925 -1.58241 1.43322e+06 
173 -0.03275 8.83418e-05 1600.65 273.132 5.02469 5.02465 -1.23581 -1.62195 1.43333e+06 
174 -0.03265 8.83422e-05 1600.65 273.134 5.02474 5.02481 -1.24476 -1.64635 1.43341e+06 
175 -0.03255 8.83412e-05 1600.65 273.135 5.0247 5.02481 -1.33669 -1.75333 1.43382e+06 
151 -0.03495 8.83409e-05 1600.66 273.119 5.02439 5.02384 -0.619901 -0.774125 1.43045e+06 
152 -0.03485 8.83415e-05 1600.66 273.12 5.02445 5.024 -0.629018 -0.806018 1.43054e+06 
153 -0.03475 8.83411e-05 1600.66 273.119 5.0244 5.02395 -0.712021 -0.898888 1.43077e+06 
154 -0.03465 8.83419e-05 1600.65 273.122 5.0245 5.02417 -0.749039 -0.951182 1.43095e+06 
155 -0.03455 8.83413e-05 1600.65 273.124 5.0245 5.02414 -0.788548 -1.03327 1.43109e+06 
156 -0.03445 8.83415e-05 1600.65 273.123 5.0245 5.02426 -0.809111 -1.06048 1.43123e+06 
157 -0.03435 8.83421e-05 1600.65 273.124 5.02456 5.02434 -0.838453 -1.08277 1.43137e+06 
158 -0.03425 8.83415e-05 1600.65 273.125 5.02454 5.02427 -0.892614 -1.13353 1.43146e+06 
159 -0.03415 8.83417e-05 1600.65 273.126 5.02456 5.02435 -0.905109 -1.16692 1.43166e+06 
160 -0.03405 8.83421e-05 1600.65 273.127 5.02461 5.02437 -0.976536 -1.21407 1.43184e+06 
200 -0.03005 8.83421e-05 1600.64 273.163 5.02528 5.02587 -2.52454 -3.62898 1.44009e+06 
193 -0.03075 8.83423e-05 1600.64 273.152 5.02507 5.0256 -2.0186 -2.94826 1.43773e+06 
194 -0.03065 8.83421e-05 1600.64 273.154 5.0251 5.02564 -2.10226 -3.07026 1.4381e+06 
195 -0.03055 8.83423e-05 1600.65 273.157 5.02517 5.02574 -2.19821 -3.23962 1.43849e+06 
196 -0.03045 8.83416e-05 1600.64 273.155 5.02509 5.02564 -2.22463 -3.28884 1.43861e+06 
197 -0.03035 8.83424e-05 1600.64 273.155 5.02513 5.02568 -2.28072 -3.35039 1.43889e+06 
198 -0.03025 8.83419e-05 1600.64 273.16 5.0252 5.02569 -2.32499 -3.36721 1.43915e+06 
199 -0.03015 8.83417e-05 1600.65 273.159 5.02518 5.02563 -2.39045 -3.43885 1.43945e+06 
176 -0.03245 8.83412e-05 1600.65 273.134 5.02469 5.02472 -1.33286 -1.73839 1.4338e+06 
177 -0.03235 8.83428e-05 1600.65 273.135 5.02479 5.02484 -1.35651 -1.79603 1.43404e+06 
178 -0.03225 8.83418e-05 1600.65 273.135 5.02474 5.02479 -1.37591 -1.83795 1.43412e+06 
179 -0.03215 8.83418e-05 1600.65 273.138 5.02478 5.02489 -1.36674 -1.8663 1.43434e+06 
180 -0.03205 8.83411e-05 1600.65 273.136 5.02471 5.02479 -1.43023 -1.95812 1.43449e+06 
181 -0.03195 8.83426e-05 1600.65 273.138 5.02484 5.02491 -1.43477 -1.97727 1.43459e+06 
182 -0.03185 8.83418e-05 1600.65 273.139 5.02481 5.025 -1.51827 -2.08385 1.43507e+06 
183 -0.03175 8.83414e-05 1600.65 273.141 5.02482 5.02497 -1.55922 -2.18904 1.43517e+06 
184 -0.03165 8.83423e-05 1600.65 273.142 5.02489 5.02517 -1.60812 -2.28503 1.43553e+06 
185 -0.03155 8.83419e-05 1600.65 273.144 5.02491 5.02515 -1.66505 -2.3131 1.43573e+06 
186 -0.03145 8.83413e-05 1600.65 273.145 5.0249 5.02522 -1.72646 -2.46198 1.43594e+06 
187 -0.03135 8.83428e-05 1600.65 273.147 5.02501 5.02543 -1.78316 -2.54112 1.43639e+06 
188 -0.03125 8.83415e-05 1600.65 273.148 5.02496 5.02529 -1.80266 -2.56277 1.43647e+06 
189 -0.03115 8.83423e-05 1600.65 273.146 5.02497 5.02526 -1.79783 -2.57026 1.43651e+06 
190 -0.03105 8.83415e-05 1600.65 273.148 5.02497 5.02535 -1.85105 -2.68791 1.43686e+06 
191 -0.03095 8.83418e-05 1600.65 273.149 5.02499 5.02547 -1.90001 -2.75398 1.43712e+06 
192 -0.03085 8.83429e-05 1600.64 273.151 5.02509 5.02561 -1.99441 -2.88412 1.43749e+06 
201 -0.02995 8.83426e-05 1600.64 273.164 5.02532 5.02604 -2.62124 -3.74731 1.4405e+06 
225 -0.02755 8.83429e-05 1600.63 273.228 5.02652 5.02822 -5.42624 -7.96763 1.45442e+06 
202 -0.02985 8.83424e-05 1600.64 273.166 5.02535 5.02605 -2.63552 -3.78226 1.44075e+06 
203 -0.02975 8.83422e-05 1600.64 273.167 5.02535 5.02616 -2.79998 -3.96403 1.44135e+06 
204 -0.02965 8.8343e-05 1600.64 273.173 5.02551 5.02643 -2.89045 -4.09008 1.4419e+06 
205 -0.02955 8.83414e-05 1600.64 273.174 5.02543 5.0263 -3.01064 -4.28242 1.44246e+06 
206 -0.02945 8.83432e-05 1600.64 273.177 5.02558 5.02656 -3.15147 -4.4962 1.44303e+06 
207 -0.02935 8.8342e-05 1600.64 273.179 5.02556 5.02648 -3.16819 -4.52706 1.44325e+06 
208 -0.02925 8.83423e-05 1600.64 273.181 5.02561 5.02659 -3.26434 -4.68326 1.44372e+06 
209 -0.02915 8.83417e-05 1600.64 273.182 5.02559 5.02661 -3.32923 -4.74762 1.44399e+06 
210 -0.02905 8.8344e-05 1600.64 273.186 5.0258 5.02696 -3.42109 -4.92846 1.44465e+06 
211 -0.02895 8.83419e-05 1600.64 273.186 5.02568 5.02682 -3.56602 -5.13961 1.44518e+06 
212 -0.02885 8.83431e-05 1600.63 273.19 5.02583 5.02711 -3.71018 -5.28417 1.44596e+06 
213 -0.02875 8.83428e-05 1600.64 273.192 5.02585 5.02712 -3.7201 -5.37873 1.44614e+06 
214 -0.02865 8.83426e-05 1600.63 273.195 5.02589 5.0272 -3.87008 -5.54212 1.44688e+06 
215 -0.02855 8.83424e-05 1600.63 273.197 5.02591 5.02735 -4.0184 -5.77033 1.4476e+06 
216 -0.02845 8.83425e-05 1600.63 273.201 5.02598 5.02738 -4.07312 -5.87327 1.44799e+06 
217 -0.02835 8.83435e-05 1600.64 273.207 5.02615 5.02761 -4.31674 -6.22178 1.44911e+06 
218 -0.02825 8.83417e-05 1600.63 273.202 5.02597 5.02729 -4.33998 -6.25281 1.44923e+06 
219 -0.02815 8.83434e-05 1600.63 273.209 5.0262 5.02753 -4.4989 -6.46415 1.45007e+06 
220 -0.02805 8.83431e-05 1600.63 273.216 5.02629 5.0277 -4.72023 -6.80509 1.4509e+06 
221 -0.02795 8.83425e-05 1600.63 273.217 5.02628 5.02776 -4.84536 -7.03294 1.4517e+06 
222 -0.02785 8.83432e-05 1600.63 273.222 5.02641 5.02795 -5.03644 -7.28682 1.45246e+06 
223 -0.02775 8.83424e-05 1600.63 273.224 5.02642 5.02798 -5.10493 -7.42539 1.45297e+06 
224 -0.02765 8.83436e-05 1600.63 273.229 5.02656 5.02828 -5.2778 -7.74095 1.4539e+06 
234 -0.02665 8.83439e-05 1600.62 273.28 5.02752 5.02997 -7.50032 -10.9447 1.46446e+06 
226 -0.02745 8.83429e-05 1600.63 273.237 5.02668 5.02849 -5.72144 -8.40703 1.45588e+06 
227 -0.02735 8.83436e-05 1600.63 273.241 5.02679 5.02862 -5.91707 -8.62315 1.45664e+06 
228 -0.02725 8.83427e-05 1600.62 273.248 5.02686 5.02878 -6.20366 -9.0618 1.45794e+06 
229 -0.02715 8.83433e-05 1600.62 273.251 5.02696 5.02889 -6.33653 -9.23617 1.45868e+06 
230 -0.02705 8.83432e-05 1600.62 273.252 5.02697 5.02898 -6.42737 -9.41299 1.45936e+06 
231 -0.02695 8.83433e-05 1600.62 273.262 5.02716 5.02932 -6.70049 -9.76339 1.46056e+06 
232 -0.02685 8.83435e-05 1600.62 273.269 5.02729 5.02948 -6.98407 -10.2124 1.46187e+06 
233 -0.02675 8.83424e-05 1600.62 273.273 5.02731 5.02964 -7.24226 -10.5609 1.46299e+06 
235 -0.02655 8.8343e-05 1600.61 273.281 5.0275 5.02995 -7.6584 -11.2094 1.46521e+06 
236 -0.02645 8.83434e-05 1600.62 273.288 5.02765 5.03008 -7.89117 -11.5777 1.46646e+06 
237 -0.02635 8.83436e-05 1600.61 273.299 5.02785 5.03042 -8.32934 -12.1267 1.46839e+06 
238 -0.02625 8.83437e-05 1600.61 273.302 5.02792 5.03066 -8.56835 -12.5371 1.46971e+06 
239 -0.02615 8.83433e-05 1600.61 273.313 5.0281 5.03088 -9.07911 -13.1202 1.47173e+06 
240 -0.02605 8.83436e-05 1600.61 273.319 5.02822 5.0311 -9.26336 -13.5279 1.47286e+06 
241 -0.02595 8.83443e-05 1600.61 273.326 5.0284 5.0315 -9.54172 -14.0002 1.4743e+06 
242 -0.02585 8.8343e-05 1600.6 273.332 5.02842 5.0315 -9.82113 -14.3697 1.47546e+06 
243 -0.02575 8.83431e-05 1600.61 273.332 5.02843 5.03143 -9.8154 -14.392 1.47605e+06 
244 -0.02565 8.83439e-05 1600.6 273.339 5.02861 5.0317 -10.1632 -14.9198 1.47764e+06 
245 -0.02555 8.83445e-05 1600.6 273.35 5.02884 5.03211 -10.576 -15.5137 1.47974e+06 
246 -0.02545 8.83435e-05 1600.6 273.354 5.02887 5.03214 -10.7715 -15.903 1.48089e+06 
247 -0.02535 8.83442e-05 1600.6 273.367 5.02915 5.03275 -11.3982 -16.7382 1.48364e+06 
248 -0.02525 8.83438e-05 1600.59 273.38 5.02936 5.0331 -11.862 -17.3993 1.48582e+06 
249 -0.02515 8.8344e-05 1600.59 273.385 5.02947 5.03324 -12.1138 -17.7666 1.4872e+06 
250 -0.02505 8.83443e-05 1600.59 273.396 5.02967 5.03356 -12.4976 -18.3869 1.48905e+06 
267 -0.02335 8.83481e-05 1600.53 273.634 5.03428 5.04169 -22.6992 -33.5184 1.53836e+06 
257 -0.02435 8.83451e-05 1600.57 273.476 5.03119 5.0363 -15.9959 -23.4853 1.50604e+06 
258 -0.02425 8.83469e-05 1600.57 273.49 5.03155 5.03688 -16.6201 -24.4862 1.509e+06 
259 -0.02415 8.83449e-05 1600.56 273.501 5.03164 5.03708 -17.1384 -25.3036 1.5115e+06 
260 -0.02405 8.83459e-05 1600.56 273.518 5.03202 5.0377 -17.7675 -26.2532 1.51476e+06 
261 -0.02395 8.83467e-05 1600.56 273.533 5.03233 5.03822 -18.3906 -27.1235 1.51769e+06 
262 -0.02385 8.83465e-05 1600.55 273.551 5.03267 5.03879 -19.3117 -28.3748 1.52166e+06 
263 -0.02375 8.8347e-05 1600.55 273.564 5.03293 5.03924 -19.7606 -29.1131 1.5241e+06 
264 -0.02365 8.83466e-05 1600.55 273.575 5.03311 5.03968 -20.3525 -30.1139 1.52718e+06 
265 -0.02355 8.83477e-05 1600.54 273.594 5.03352 5.04041 -21.0858 -31.2137 1.53072e+06 
266 -0.02345 8.8347e-05 1600.54 273.611 5.03379 5.04084 -21.8286 -32.2891 1.53439e+06 
268 -0.02325 8.83481e-05 1600.53 273.647 5.03451 5.04208 -23.3407 -34.5517 1.54198e+06 
269 -0.02315 8.83482e-05 1600.52 273.67 5.03494 5.04282 -24.3265 -35.9735 1.5464e+06 
270 -0.02305 8.83488e-05 1600.52 273.692 5.03539 5.04363 -25.4055 -37.5178 1.55144e+06 
271 -0.02295 8.83493e-05 1600.52 273.713 5.0358 5.04432 -26.19 -38.7406 1.55528e+06 
272 -0.02285 8.83489e-05 1600.51 273.732 5.03612 5.04489 -26.9916 -40.0219 1.55953e+06 
273 -0.02275 8.83496e-05 1600.51 273.749 5.03648 5.04541 -27.7394 -41.1984 1.56346e+06 
274 -0.02265 8.83501e-05 1600.5 273.774 5.03697 5.04626 -28.8441 -42.731 1.5685e+06 
275 -0.02255 8.83503e-05 1600.5 273.793 5.03733 5.04692 -29.6419 -43.984 1.57263e+06 
251 -0.02495 8.83453e-05 1600.59 273.406 5.02992 5.03399 -13.0078 -19.1246 1.49154e+06 
252 -0.02485 8.83441e-05 1600.58 273.42 5.03011 5.03432 -13.6139 -19.8515 1.49411e+06 
253 -0.02475 8.83448e-05 1600.58 273.43 5.03033 5.03475 -14.0108 -20.5039 1.49627e+06 
254 -0.02465 8.83453e-05 1600.58 273.438 5.03052 5.03505 -14.3206 -21.0651 1.4981e+06 
255 -0.02455 8.83446e-05 1600.58 273.447 5.03064 5.0354 -14.814 -21.824 1.50042e+06 
256 -0.02445 8.83454e-05 1600.57 273.462 5.03096 5.03586 -15.4656 -22.7009 1.50338e+06 
300 -0.02005 8.83622e-05 1600.26 274.786 5.05628 5.0794 -72.1811 -106.688 1.77685e+06 
289 -0.02115 8.83561e-05 1600.39 274.249 5.04605 5.06191 -49.2452 -72.6155 1.666e+06 
290 -0.02105 8.83569e-05 1600.38 274.282 5.0467 5.06298 -50.6779 -74.9293 1.67382e+06 
291 -0.02095 8.83571e-05 1600.37 274.321 5.04743 5.06425 -52.3624 -77.3104 1.68153e+06 
292 -0.02085 8.83579e-05 1600.36 274.371 5.04839 5.0659 -54.44 -80.3046 1.69149e+06 
293 -0.02075 8.83582e-05 1600.35 274.41 5.04913 5.06723 -56.1396 -83.1872 1.70012e+06 
294 -0.02065 8.83594e-05 1600.34 274.456 5.05005 5.06878 -58.0785 -86.0132 1.70917e+06 
295 -0.02055 8.83592e-05 1600.33 274.506 5.05095 5.07033 -60.279 -89.1423 1.71983e+06 
296 -0.02045 8.83604e-05 1600.32 274.557 5.05197 5.07192 -62.4363 -92.3095 1.7302e+06 
297 -0.02035 8.83613e-05 1600.31 274.609 5.05298 5.07362 -64.6765 -95.54 1.74101e+06 
298 -0.02025 8.83612e-05 1600.29 274.659 5.05389 5.07533 -66.8739 -99.0962 1.75203e+06 
299 -0.02015 8.83629e-05 1600.28 274.722 5.05514 5.07735 -69.4915 -102.612 1.76404e+06 
276 -0.02245 8.83498e-05 1600.49 273.826 5.0379 5.0479 -30.9897 -45.778 1.57878e+06 
277 -0.02235 8.83512e-05 1600.48 273.848 5.03839 5.04864 -31.9814 -47.2799 1.58364e+06 
278 -0.02225 8.83513e-05 1600.48 273.876 5.0389 5.04951 -33.1938 -49.0343 1.58945e+06 
279 -0.02215 8.83515e-05 1600.47 273.901 5.03938 5.05031 -34.3316 -50.643 1.59512e+06 
280 -0.02205 8.83519e-05 1600.46 273.934 5.04002 5.05138 -35.6527 -52.6579 1.60116e+06 
281 -0.02195 8.8352e-05 1600.45 273.965 5.04059 5.05246 -37.0585 -54.7462 1.60787e+06 
282 -0.02185 8.83539e-05 1600.45 273.995 5.04124 5.05352 -38.2068 -56.5394 1.61395e+06 
283 -0.02175 8.83524e-05 1600.44 274.017 5.04157 5.05423 -39.3277 -58.2792 1.61953e+06 
284 -0.02165 8.83546e-05 1600.44 274.046 5.04223 5.05533 -40.5529 -60.25 1.62546e+06 
285 -0.02155 8.83536e-05 1600.43 274.081 5.04282 5.0564 -42.0488 -62.3919 1.6328e+06 
286 -0.02145 8.83541e-05 1600.42 274.123 5.04361 5.05768 -43.8323 -64.8429 1.64089e+06 
287 -0.02135 8.83552e-05 1600.41 274.16 5.04437 5.05899 -45.3542 -67.2766 1.64831e+06 
288 -0.02125 8.83561e-05 1600.4 274.202 5.04518 5.06036 -47.2565 -69.8419 1.65726e+06 
301 -0.01995 8.83649e-05 1600.25 274.851 5.05763 5.08164 -74.9951 -110.638 1.78995e+06 
321 -0.01795 8.83882e-05 1599.82 276.673 5.09249 5.14226 -153.052 -226.455 2.16247e+06 
322 -0.01785 8.83897e-05 1599.79 276.807 5.09505 5.14673 -158.904 -235.131 2.18979e+06 
323 -0.01775 8.83916e-05 1599.76 276.94 5.0976 5.15145 -164.515 -244.006 2.21686e+06 
324 -0.01765 8.83938e-05 1599.72 277.082 5.10034 5.1561 -170.553 -252.708 2.24534e+06 
325 -0.01755 8.83944e-05 1599.69 277.218 5.10289 5.16057 -176.537 -261.688 2.27435e+06 
302 -0.01985 8.83645e-05 1600.24 274.908 5.05865 5.08339 -77.4724 -114.325 1.80215e+06 
303 -0.01975 8.83659e-05 1600.22 274.968 5.05983 5.08556 -80.0728 -118.486 1.81518e+06 
304 -0.01965 8.83666e-05 1600.2 275.036 5.06114 5.08771 -82.9921 -122.62 1.8286e+06 
305 -0.01955 8.83672e-05 1600.19 275.101 5.06235 5.0899 -85.7665 -126.742 1.8424e+06 
306 -0.01945 8.83691e-05 1600.17 275.177 5.06386 5.0924 -88.9859 -131.503 1.85783e+06 
307 -0.01935 8.83689e-05 1600.16 275.256 5.06531 5.09479 -92.3504 -136.329 1.87361e+06 
308 -0.01925 8.83702e-05 1600.14 275.333 5.0668 5.09765 -95.6701 -141.506 1.88951e+06 
309 -0.01915 8.83717e-05 1600.12 275.41 5.06831 5.10017 -99.0762 -146.42 1.90595e+06 
310 -0.01905 8.83732e-05 1600.1 275.481 5.06969 5.1025 -102.036 -150.983 1.92082e+06 
311 -0.01895 8.83735e-05 1600.08 275.567 5.0713 5.1054 -105.714 -156.588 1.93828e+06 
312 -0.01885 8.83741e-05 1600.06 275.662 5.07308 5.10853 -109.9 -162.763 1.95788e+06 
313 -0.01875 8.83763e-05 1600.03 275.761 5.07503 5.11197 -114.083 -169.016 1.97741e+06 
314 -0.01865 8.83779e-05 1600.01 275.858 5.07691 5.11515 -118.088 -175.011 1.9966e+06 
315 -0.01855 8.83785e-05 1599.99 275.96 5.07882 5.11861 -122.569 -181.65 2.01787e+06 
316 -0.01845 8.83803e-05 1599.96 276.082 5.08116 5.12253 -127.792 -189.02 2.04164e+06 
317 -0.01835 8.83819e-05 1599.94 276.17 5.08287 5.12555 -131.561 -194.935 2.06098e+06 
318 -0.01825 8.8383e-05 1599.91 276.298 5.0853 5.12979 -136.971 -202.875 2.08599e+06 
319 -0.01815 8.83848e-05 1599.88 276.431 5.08785 5.13441 -142.704 -211.369 2.1127e+06 
320 -0.01805 8.83864e-05 1599.85 276.547 5.09008 5.13814 -147.72 -218.599 2.13612e+06 
334 -0.01665 8.84162e-05 1599.31 278.841 5.13402 5.21498 -246.151 -365.29 2.60429e+06 
326 -0.01745 8.83975e-05 1599.66 277.376 5.10597 5.16587 -183.214 -271.682 2.30626e+06 
327 -0.01735 8.83995e-05 1599.62 277.528 5.10889 5.17102 -189.722 -281.501 2.33727e+06 
328 -0.01725 8.84018e-05 1599.58 277.696 5.11212 5.17667 -196.98 -292.231 2.37175e+06 
329 -0.01715 8.84032e-05 1599.53 277.87 5.11539 5.18274 -204.396 -303.701 2.40664e+06 
330 -0.01705 8.84059e-05 1599.49 278.059 5.11904 5.18895 -212.506 -315.418 2.44468e+06 
331 -0.01695 8.8409e-05 1599.44 278.258 5.12288 5.19585 -221.1 -328.208 2.48462e+06 
332 -0.01685 8.8411e-05 1599.4 278.446 5.12645 5.20175 -229.027 -339.609 2.5222e+06 
333 -0.01675 8.84137e-05 1599.35 278.64 5.13018 5.20837 -237.342 -352.345 2.56249e+06 
335 -0.01655 8.84193e-05 1599.25 279.073 5.13847 5.22247 -255.948 -379.457 2.65016e+06 
336 -0.01645 8.84215e-05 1599.2 279.296 5.14271 5.22982 -265.492 -393.616 2.6953e+06 
337 -0.01635 8.84257e-05 1599.15 279.521 5.14711 5.23741 -275.161 -407.961 2.74109e+06 
338 -0.01625 8.84282e-05 1599.09 279.775 5.15193 5.24592 -286.053 -424.294 2.79274e+06 
339 -0.01615 8.84314e-05 1599.02 280.022 5.15666 5.2544 -296.628 -440.194 2.84277e+06 