ITEM: TIMESTEP
30000
ITEM: NUMBER OF CELLS
800
ITEM: BOX BOUNDS os pp pp
-0.05 0.03
-0.001 0.001
-0.001 0.001
ITEM: CELLS id f_1[1] f_1[2] f_1[3] f_1[4] f_1[5] f_1[6] f_1[7] f_1[8] f_1[9] 
1 -0.04995 8.83408e-05 1600.66 273.105 5.02412 5.02298 0.020405 -0.0983251 1.42654e+06 
2 -0.04985 8.83409e-05 1600.66 273.105 5.02413 5.02305 0.0200933 -0.102415 1.42664e+06 
3 -0.04975 8.83411e-05 1600.66 273.106 5.02416 5.02314 -0.0240967 -0.159479 1.42672e+06 
4 -0.04965 8.83422e-05 1600.66 273.105 5.0242 5.02323 -0.022703 -0.218359 1.42679e+06 
5 -0.04955 8.83409e-05 1600.66 273.107 5.02416 5.02322 -0.0668512 -0.284514 1.42687e+06 
6 -0.04945 8.83408e-05 1600.66 273.107 5.02417 5.02321 -0.0583129 -0.332873 1.42692e+06 
7 -0.04935 8.83414e-05 1600.66 273.108 5.02422 5.02325 -0.0954803 -0.388479 1.42699e+06 
8 -0.04925 8.83407e-05 1600.66 273.105 5.02413 5.02315 -0.100192 -0.386189 1.42698e+06 
9 -0.04915 8.83418e-05 1600.66 273.108 5.02423 5.02324 -0.11638 -0.423896 1.42705e+06 
10 -0.04905 8.83406e-05 1600.66 273.109 5.02419 5.02323 -0.138868 -0.428881 1.42707e+06 
11 -0.04895 8.83408e-05 1600.66 273.108 5.02419 5.02323 -0.135162 -0.381464 1.4271e+06 
12 -0.04885 8.83413e-05 1600.66 273.11 5.02425 5.02326 -0.167405 -0.465205 1.42717e+06 
13 -0.04875 8.8342e-05 1600.66 273.109 5.02426 5.02337 -0.182721 -0.482644 1.42723e+06 
14 -0.04865 8.83413e-05 1600.66 273.109 5.02423 5.02328 -0.181615 -0.497919 1.42727e+06 
15 -0.04855 8.83412e-05 1600.66 273.112 5.02428 5.02341 -0.215795 -0.53334 1.42732e+06 
16 -0.04845 8.83414e-05 1600.66 273.108 5.02423 5.02338 -0.216973 -0.550918 1.42735e+06 
17 -0.04835 8.8342e-05 1600.66 273.111 5.0243 5.02352 -0.24045 -0.575605 1.42747e+06 
18 -0.04825 8.83411e-05 1600.66 273.111 5.02426 5.0235 -0.25104 -0.620173 1.42749e+06 
19 -0.04815 8.83408e-05 1600.66 273.113 5.02428 5.02351 -0.255763 -0.606516 1.42752e+06 
20 -0.04805 8.83414e-05 1600.66 273.111 5.02428 5.02353 -0.241546 -0.599393 1.42754e+06 
21 -0.04795 8.8342e-05 1600.66 273.111 5.02432 5.02359 -0.268502 -0.629742 1.42756e+06 
22 -0.04785 8.83411e-05 1600.66 273.111 5.02426 5.0236 -0.250826 -0.619633 1.42763e+06 
23 -0.04775 8.83409e-05 1600.66 273.112 5.02425 5.02364 -0.248766 -0.634811 1.42765e+06 
24 -0.04765 8.83417e-05 1600.66 273.112 5.0243 5.02362 -0.241837 -0.590955 1.42761e+06 
25 -0.04755 8.83408e-05 1600.66 273.11 5.02423 5.02356 -0.219786 -0.566582 1.42762e+06 
34 -0.04665 8.83422e-05 1600.66 273.109 5.02427 5.02359 -0.291303 -0.566765 1.42772e+06 
33 -0.04675 8.83412e-05 1600.66 273.112 5.02428 5.02344 -0.262486 -0.506513 1.42766e+06 
35 -0.04655 8.83408e-05 1600.66 273.112 5.02425 5.02339 -0.293156 -0.544787 1.42768e+06 
36 -0.04645 8.83414e-05 1600.66 273.111 5.02428 5.02356 -0.280856 -0.511138 1.42776e+06 
37 -0.04635 8.83415e-05 1600.66 273.113 5.02432 5.02352 -0.281734 -0.470726 1.42776e+06 
38 -0.04625 8.83417e-05 1600.66 273.109 5.02425 5.02351 -0.288632 -0.488859 1.42777e+06 
39 -0.04615 8.83418e-05 1600.66 273.111 5.0243 5.02355 -0.273735 -0.459727 1.42779e+06 
40 -0.04605 8.83412e-05 1600.66 273.111 5.02426 5.02348 -0.316229 -0.513489 1.4278e+06 
41 -0.04595 8.83421e-05 1600.66 273.111 5.02431 5.0235 -0.313543 -0.550387 1.42782e+06 
42 -0.04585 8.83413e-05 1600.66 273.113 5.0243 5.0236 -0.323138 -0.532811 1.42792e+06 
43 -0.04575 8.83415e-05 1600.66 273.112 5.0243 5.02355 -0.348281 -0.560511 1.42794e+06 
44 -0.04565 8.8341e-05 1600.66 273.111 5.02425 5.02349 -0.368719 -0.587544 1.42792e+06 
45 -0.04555 8.8342e-05 1600.66 273.112 5.02433 5.02351 -0.339383 -0.523786 1.42792e+06 
46 -0.04545 8.83412e-05 1600.66 273.112 5.02428 5.02348 -0.347688 -0.519388 1.4279e+06 
47 -0.04535 8.83416e-05 1600.66 273.112 5.0243 5.0235 -0.331993 -0.504705 1.42794e+06 
48 -0.04525 8.83416e-05 1600.66 273.113 5.02432 5.02351 -0.352325 -0.518934 1.42794e+06 
49 -0.04515 8.83413e-05 1600.66 273.113 5.02429 5.02358 -0.331786 -0.507682 1.42799e+06 
50 -0.04505 8.83413e-05 1600.66 273.11 5.02426 5.02362 -0.348383 -0.545999 1.42799e+06 
26 -0.04745 8.83416e-05 1600.66 273.109 5.02425 5.02357 -0.222977 -0.580478 1.42761e+06 
27 -0.04735 8.83413e-05 1600.66 273.112 5.02428 5.02346 -0.229244 -0.541861 1.4276e+06 
28 -0.04725 8.83417e-05 1600.66 273.11 5.02426 5.02353 -0.244473 -0.579345 1.42764e+06 
29 -0.04715 8.83415e-05 1600.66 273.112 5.02429 5.02361 -0.230206 -0.536377 1.42767e+06 
30 -0.04705 8.83412e-05 1600.66 273.109 5.02423 5.02347 -0.243132 -0.543108 1.42763e+06 
31 -0.04695 8.83416e-05 1600.66 273.112 5.0243 5.02354 -0.248636 -0.495161 1.42765e+06 
32 -0.04685 8.83416e-05 1600.66 273.112 5.0243 5.02352 -0.266288 -0.523866 1.42769e+06 
67 -0.04335 8.83417e-05 1600.66 273.11 5.02428 5.02368 -0.247419 -0.296813 1.42811e+06 
65 -0.04355 8.83413e-05 1600.65 273.11 5.02425 5.02357 -0.278743 -0.36982 1.4281e+06 
66 -0.04345 8.83419e-05 1600.66 273.11 5.02428 5.02368 -0.263589 -0.3307 1.4281e+06 
68 -0.04325 8.83418e-05 1600.66 273.109 5.02425 5.02368 -0.237642 -0.282613 1.42811e+06 
69 -0.04315 8.83413e-05 1600.65 273.11 5.02425 5.02363 -0.259274 -0.312461 1.42806e+06 
70 -0.04305 8.83421e-05 1600.65 273.11 5.02428 5.0238 -0.255273 -0.325017 1.42815e+06 
71 -0.04295 8.83413e-05 1600.65 273.11 5.02426 5.02373 -0.271621 -0.349405 1.42818e+06 
72 -0.04285 8.83425e-05 1600.66 273.109 5.02429 5.02371 -0.277192 -0.356911 1.42816e+06 
73 -0.04275 8.83409e-05 1600.66 273.11 5.02422 5.02363 -0.265622 -0.327501 1.42812e+06 
74 -0.04265 8.83417e-05 1600.66 273.109 5.02425 5.02368 -0.247501 -0.311588 1.42817e+06 
75 -0.04255 8.83421e-05 1600.66 273.109 5.02428 5.02369 -0.271738 -0.335803 1.42822e+06 
51 -0.04495 8.83419e-05 1600.66 273.111 5.02431 5.02368 -0.31654 -0.522904 1.42801e+06 
52 -0.04485 8.83417e-05 1600.65 273.11 5.02427 5.02375 -0.328325 -0.534528 1.42805e+06 
53 -0.04475 8.8342e-05 1600.66 273.113 5.02434 5.02381 -0.312164 -0.520477 1.42811e+06 
54 -0.04465 8.83419e-05 1600.66 273.111 5.02431 5.02383 -0.316813 -0.488706 1.42811e+06 
55 -0.04455 8.83413e-05 1600.66 273.11 5.02424 5.02369 -0.318067 -0.480613 1.42804e+06 
56 -0.04445 8.83421e-05 1600.66 273.111 5.02431 5.02372 -0.296115 -0.463069 1.42806e+06 
57 -0.04435 8.83411e-05 1600.66 273.111 5.02425 5.02367 -0.288325 -0.435552 1.42806e+06 
58 -0.04425 8.83418e-05 1600.66 273.111 5.0243 5.02366 -0.300034 -0.422685 1.42803e+06 
59 -0.04415 8.83415e-05 1600.65 273.111 5.02427 5.02367 -0.281903 -0.423193 1.42804e+06 
60 -0.04405 8.83418e-05 1600.66 273.11 5.02428 5.02366 -0.308274 -0.402167 1.42808e+06 
61 -0.04395 8.83416e-05 1600.66 273.111 5.02427 5.02361 -0.292215 -0.400361 1.42806e+06 
62 -0.04385 8.83411e-05 1600.66 273.111 5.02425 5.02362 -0.305684 -0.426816 1.4281e+06 
63 -0.04375 8.83418e-05 1600.66 273.111 5.0243 5.02367 -0.29648 -0.393192 1.42811e+06 
64 -0.04365 8.8342e-05 1600.66 273.109 5.02427 5.02363 -0.288448 -0.35714 1.42809e+06 
100 -0.04005 8.83412e-05 1600.66 273.112 5.02427 5.02367 -0.263137 -0.38595 1.42851e+06 
97 -0.04035 8.83414e-05 1600.66 273.11 5.02425 5.02367 -0.231151 -0.353906 1.4284e+06 
98 -0.04025 8.83403e-05 1600.66 273.112 5.02424 5.02363 -0.255067 -0.385709 1.42842e+06 
99 -0.04015 8.83413e-05 1600.65 273.109 5.02423 5.02363 -0.264614 -0.369221 1.42846e+06 
76 -0.04245 8.83416e-05 1600.66 273.108 5.02424 5.02358 -0.262034 -0.301486 1.42817e+06 
77 -0.04235 8.83419e-05 1600.66 273.112 5.02432 5.02364 -0.254433 -0.280436 1.42821e+06 
78 -0.04225 8.83423e-05 1600.66 273.108 5.02427 5.02363 -0.271317 -0.300759 1.4282e+06 
79 -0.04215 8.83414e-05 1600.66 273.11 5.02426 5.0236 -0.274654 -0.301901 1.42824e+06 
80 -0.04205 8.83417e-05 1600.66 273.109 5.02426 5.0237 -0.293914 -0.325106 1.42828e+06 
81 -0.04195 8.8342e-05 1600.66 273.111 5.02431 5.02366 -0.280689 -0.299031 1.42828e+06 
82 -0.04185 8.83418e-05 1600.66 273.109 5.02426 5.02365 -0.305398 -0.343016 1.42829e+06 
83 -0.04175 8.83419e-05 1600.66 273.11 5.02429 5.02359 -0.299914 -0.336602 1.4283e+06 
84 -0.04165 8.83415e-05 1600.66 273.113 5.02431 5.02369 -0.285238 -0.341545 1.42833e+06 
85 -0.04155 8.83416e-05 1600.65 273.111 5.02429 5.02365 -0.295915 -0.350647 1.42834e+06 
86 -0.04145 8.83416e-05 1600.66 273.11 5.02427 5.02357 -0.295957 -0.333612 1.4283e+06 
87 -0.04135 8.83418e-05 1600.66 273.112 5.02432 5.02363 -0.321623 -0.384485 1.42835e+06 
88 -0.04125 8.83417e-05 1600.66 273.111 5.0243 5.02355 -0.311205 -0.390409 1.42831e+06 
89 -0.04115 8.8341e-05 1600.65 273.111 5.02426 5.02361 -0.321543 -0.40131 1.42831e+06 
90 -0.04105 8.83422e-05 1600.66 273.112 5.02434 5.02371 -0.30132 -0.364187 1.42836e+06 
91 -0.04095 8.83413e-05 1600.66 273.11 5.02425 5.02365 -0.281592 -0.353148 1.42836e+06 
92 -0.04085 8.83419e-05 1600.66 273.111 5.0243 5.02363 -0.296361 -0.359113 1.42836e+06 
93 -0.04075 8.83415e-05 1600.66 273.112 5.02429 5.02367 -0.27659 -0.33702 1.42839e+06 
94 -0.04065 8.83411e-05 1600.66 273.111 5.02426 5.0236 -0.301759 -0.399606 1.42837e+06 
95 -0.04055 8.83411e-05 1600.66 273.11 5.02423 5.0236 -0.261359 -0.360742 1.4284e+06 
96 -0.04045 8.8342e-05 1600.66 273.11 5.02429 5.02368 -0.246875 -0.364587 1.42841e+06 
101 -0.03995 8.83417e-05 1600.66 273.11 5.02427 5.02374 -0.273289 -0.376901 1.42852e+06 
102 -0.03985 8.83412e-05 1600.65 273.111 5.02427 5.02378 -0.257079 -0.376102 1.42856e+06 
103 -0.03975 8.83419e-05 1600.65 273.111 5.02431 5.02381 -0.2782 -0.407514 1.42859e+06 
104 -0.03965 8.8341e-05 1600.65 273.111 5.02425 5.02381 -0.290096 -0.44373 1.42864e+06 
105 -0.03955 8.83415e-05 1600.65 273.112 5.0243 5.02374 -0.277329 -0.405695 1.42861e+06 
106 -0.03945 8.8342e-05 1600.66 273.112 5.02432 5.02385 -0.308189 -0.414934 1.42874e+06 
107 -0.03935 8.83408e-05 1600.65 273.113 5.02428 5.02369 -0.307451 -0.420149 1.42874e+06 
108 -0.03925 8.83416e-05 1600.66 273.112 5.0243 5.02371 -0.301118 -0.40381 1.42872e+06 
109 -0.03915 8.83412e-05 1600.65 273.112 5.02429 5.02369 -0.301243 -0.393442 1.42874e+06 
110 -0.03905 8.83411e-05 1600.65 273.112 5.02428 5.0238 -0.301436 -0.422033 1.42886e+06 
111 -0.03895 8.8342e-05 1600.65 273.113 5.02434 5.02385 -0.328739 -0.471226 1.42888e+06 
112 -0.03885 8.83419e-05 1600.65 273.112 5.02433 5.02384 -0.320229 -0.460059 1.42885e+06 
113 -0.03875 8.83413e-05 1600.65 273.115 5.02434 5.0239 -0.336923 -0.48799 1.42897e+06 
114 -0.03865 8.83412e-05 1600.65 273.114 5.02432 5.02385 -0.360242 -0.511695 1.42899e+06 
115 -0.03855 8.83419e-05 1600.66 273.114 5.02436 5.02391 -0.369021 -0.517658 1.42902e+06 
116 -0.03845 8.83411e-05 1600.65 273.114 5.02432 5.02382 -0.397026 -0.524864 1.42907e+06 
117 -0.03835 8.83419e-05 1600.66 273.116 5.02438 5.02391 -0.400066 -0.518893 1.42907e+06 
118 -0.03825 8.83415e-05 1600.65 273.115 5.02435 5.0238 -0.394318 -0.490103 1.42905e+06 
119 -0.03815 8.83414e-05 1600.65 273.115 5.02435 5.02386 -0.372704 -0.471789 1.42909e+06 
120 -0.03805 8.83415e-05 1600.66 273.115 5.02436 5.02387 -0.401903 -0.486164 1.42914e+06 
121 -0.03795 8.83413e-05 1600.66 273.115 5.02434 5.02386 -0.400405 -0.48739 1.42917e+06 
122 -0.03785 8.83414e-05 1600.65 273.114 5.02432 5.02391 -0.425013 -0.522474 1.42928e+06 
123 -0.03775 8.83418e-05 1600.65 273.117 5.02441 5.02396 -0.423515 -0.521945 1.42928e+06 
124 -0.03765 8.8342e-05 1600.66 273.114 5.02436 5.024 -0.440267 -0.569621 1.42935e+06 
125 -0.03755 8.8342e-05 1600.65 273.118 5.02443 5.02404 -0.432133 -0.563755 1.42945e+06 
134 -0.03665 8.83424e-05 1600.65 273.122 5.02453 5.02424 -0.483187 -0.679331 1.42988e+06 
129 -0.03715 8.83419e-05 1600.65 273.121 5.02448 5.02408 -0.485201 -0.636647 1.42971e+06 
130 -0.03705 8.83411e-05 1600.66 273.117 5.02436 5.02396 -0.437881 -0.569923 1.42955e+06 
131 -0.03695 8.83417e-05 1600.65 273.117 5.0244 5.02405 -0.451577 -0.621026 1.42964e+06 
132 -0.03685 8.83423e-05 1600.65 273.118 5.02445 5.02413 -0.434111 -0.623531 1.42964e+06 
133 -0.03675 8.83418e-05 1600.65 273.117 5.0244 5.02407 -0.430715 -0.643834 1.42963e+06 
135 -0.03655 8.83421e-05 1600.65 273.119 5.02446 5.02415 -0.52836 -0.697205 1.43e+06 
136 -0.03645 8.83421e-05 1600.65 273.12 5.02448 5.0242 -0.533961 -0.735552 1.43008e+06 
137 -0.03635 8.83417e-05 1600.65 273.121 5.02447 5.02426 -0.540744 -0.770803 1.43018e+06 
138 -0.03625 8.83425e-05 1600.65 273.12 5.0245 5.02429 -0.519292 -0.757377 1.43014e+06 
139 -0.03615 8.83422e-05 1600.65 273.12 5.02449 5.02423 -0.560137 -0.813764 1.43023e+06 
140 -0.03605 8.83421e-05 1600.65 273.12 5.02447 5.02429 -0.542026 -0.829953 1.43031e+06 
141 -0.03595 8.8342e-05 1600.65 273.121 5.02449 5.02429 -0.520202 -0.780064 1.43026e+06 
142 -0.03585 8.83426e-05 1600.65 273.118 5.02447 5.0242 -0.537044 -0.814525 1.43029e+06 
143 -0.03575 8.83422e-05 1600.65 273.119 5.02448 5.0242 -0.552253 -0.80525 1.43042e+06 
144 -0.03565 8.83418e-05 1600.65 273.122 5.0245 5.02425 -0.548102 -0.794564 1.43039e+06 
145 -0.03555 8.83428e-05 1600.65 273.121 5.02453 5.02432 -0.566884 -0.835183 1.43041e+06 
146 -0.03545 8.83422e-05 1600.65 273.12 5.02448 5.02425 -0.546551 -0.827134 1.43044e+06 
147 -0.03535 8.83421e-05 1600.65 273.123 5.02452 5.02429 -0.59335 -0.848966 1.43052e+06 
148 -0.03525 8.83424e-05 1600.65 273.122 5.02454 5.02428 -0.613183 -0.888225 1.43061e+06 
149 -0.03515 8.83417e-05 1600.65 273.124 5.02452 5.02441 -0.656372 -0.963385 1.43079e+06 
150 -0.03505 8.83423e-05 1600.65 273.124 5.02456 5.02447 -0.676106 -0.981717 1.43091e+06 
126 -0.03745 8.83417e-05 1600.65 273.117 5.02439 5.02402 -0.442139 -0.549647 1.42948e+06 
127 -0.03735 8.83419e-05 1600.65 273.118 5.02443 5.02408 -0.468096 -0.601437 1.42956e+06 
128 -0.03725 8.83422e-05 1600.65 273.118 5.02444 5.02404 -0.480765 -0.608191 1.42964e+06 
167 -0.03335 8.83419e-05 1600.65 273.133 5.02471 5.0249 -0.97677 -1.36684 1.43264e+06 
161 -0.03395 8.8342e-05 1600.65 273.128 5.02463 5.02463 -0.839909 -1.1614 1.4318e+06 
162 -0.03385 8.83427e-05 1600.65 273.128 5.02467 5.02471 -0.884226 -1.21716 1.43198e+06 
163 -0.03375 8.8342e-05 1600.65 273.128 5.02462 5.02464 -0.875086 -1.21034 1.43204e+06 
164 -0.03365 8.83416e-05 1600.65 273.132 5.02466 5.02472 -0.942979 -1.33367 1.43229e+06 
165 -0.03355 8.83427e-05 1600.65 273.132 5.02473 5.02483 -0.997015 -1.40783 1.43249e+06 
166 -0.03345 8.83418e-05 1600.65 273.131 5.02466 5.02489 -0.97357 -1.37765 1.4325e+06 
168 -0.03325 8.83423e-05 1600.65 273.133 5.02472 5.02487 -1.04208 -1.47926 1.43279e+06 
169 -0.03315 8.8342e-05 1600.65 273.132 5.0247 5.02489 -1.08454 -1.5366 1.43295e+06 
170 -0.03305 8.83425e-05 1600.65 273.134 5.02476 5.02498 -1.07578 -1.54268 1.43303e+06 
171 -0.03295 8.83418e-05 1600.65 273.135 5.02473 5.02501 -1.07065 -1.53853 1.43303e+06 
172 -0.03285 8.83417e-05 1600.65 273.137 5.02476 5.02508 -1.13328 -1.6186 1.4334e+06 
173 -0.03275 8.83426e-05 1600.65 273.137 5.02481 5.02516 -1.14575 -1.62867 1.43347e+06 
174 -0.03265 8.83426e-05 1600.65 273.135 5.02479 5.02514 -1.2412 -1.71027 1.43383e+06 
175 -0.03255 8.83419e-05 1600.65 273.136 5.02476 5.02512 -1.18455 -1.70383 1.43373e+06 
151 -0.03495 8.83428e-05 1600.65 273.126 5.02463 5.02451 -0.708368 -1.02219 1.43104e+06 
152 -0.03485 8.83413e-05 1600.65 273.126 5.02454 5.02441 -0.725218 -1.04284 1.43108e+06 
153 -0.03475 8.8342e-05 1600.65 273.124 5.02455 5.02443 -0.710915 -1.01451 1.431e+06 
154 -0.03465 8.83418e-05 1600.65 273.125 5.02455 5.02432 -0.684234 -0.977245 1.43107e+06 
155 -0.03455 8.83421e-05 1600.65 273.123 5.02454 5.02435 -0.751015 -1.06458 1.43118e+06 
156 -0.03445 8.83421e-05 1600.65 273.126 5.02459 5.02452 -0.768663 -1.09172 1.43134e+06 
157 -0.03435 8.83415e-05 1600.65 273.127 5.02457 5.02443 -0.756178 -1.04248 1.43137e+06 
158 -0.03425 8.83417e-05 1600.65 273.125 5.02454 5.0245 -0.798133 -1.08408 1.4315e+06 
159 -0.03415 8.83418e-05 1600.65 273.127 5.0246 5.0245 -0.776634 -1.06969 1.4315e+06 
160 -0.03405 8.83412e-05 1600.65 273.126 5.02454 5.02449 -0.806562 -1.08817 1.43158e+06 
200 -0.03005 8.83424e-05 1600.64 273.166 5.02535 5.02606 -2.49282 -3.62668 1.44032e+06 
193 -0.03075 8.83418e-05 1600.64 273.157 5.02514 5.02583 -2.03058 -3.00815 1.43817e+06 
194 -0.03065 8.83422e-05 1600.64 273.155 5.02513 5.02577 -2.08516 -3.04019 1.43842e+06 
195 -0.03055 8.83418e-05 1600.64 273.159 5.02518 5.02585 -2.10368 -3.08358 1.43861e+06 
196 -0.03045 8.83425e-05 1600.64 273.16 5.02523 5.02591 -2.21983 -3.21402 1.43906e+06 
197 -0.03035 8.83423e-05 1600.64 273.161 5.02523 5.02591 -2.21217 -3.25883 1.43928e+06 
198 -0.03025 8.83425e-05 1600.64 273.164 5.0253 5.02606 -2.38564 -3.47692 1.43982e+06 
199 -0.03015 8.8342e-05 1600.64 273.164 5.02528 5.02588 -2.42308 -3.53218 1.43998e+06 
176 -0.03245 8.83423e-05 1600.65 273.138 5.02483 5.02521 -1.28449 -1.86124 1.43408e+06 
177 -0.03235 8.8342e-05 1600.65 273.137 5.02478 5.02512 -1.25844 -1.79763 1.43404e+06 
178 -0.03225 8.83421e-05 1600.65 273.14 5.02484 5.02515 -1.28782 -1.85005 1.43425e+06 
179 -0.03215 8.83419e-05 1600.64 273.139 5.02481 5.02511 -1.38113 -1.98499 1.43449e+06 
180 -0.03205 8.83423e-05 1600.65 273.142 5.0249 5.02525 -1.40921 -2.00999 1.43482e+06 
181 -0.03195 8.83425e-05 1600.65 273.141 5.02489 5.02514 -1.39797 -1.97792 1.43488e+06 
182 -0.03185 8.83426e-05 1600.64 273.142 5.0249 5.02536 -1.42775 -2.06956 1.43507e+06 
183 -0.03175 8.83419e-05 1600.65 273.145 5.02492 5.02524 -1.49893 -2.09677 1.43535e+06 
184 -0.03165 8.83422e-05 1600.65 273.143 5.02491 5.02528 -1.49556 -2.11927 1.43538e+06 
185 -0.03155 8.83422e-05 1600.64 273.147 5.02499 5.02538 -1.5873 -2.25805 1.43576e+06 
186 -0.03145 8.83417e-05 1600.65 273.148 5.02497 5.02549 -1.73336 -2.46985 1.43639e+06 
187 -0.03135 8.83426e-05 1600.64 273.15 5.02505 5.02551 -1.76171 -2.49401 1.43655e+06 
188 -0.03125 8.83419e-05 1600.64 273.151 5.02504 5.0255 -1.73642 -2.50323 1.43652e+06 
189 -0.03115 8.83423e-05 1600.64 273.148 5.025 5.02543 -1.75666 -2.55921 1.43669e+06 
190 -0.03105 8.83426e-05 1600.64 273.152 5.02509 5.02564 -1.83591 -2.65902 1.43711e+06 
191 -0.03095 8.83417e-05 1600.64 273.154 5.02508 5.0257 -1.88451 -2.74138 1.4374e+06 
192 -0.03085 8.83422e-05 1600.64 273.154 5.02511 5.02576 -2.00719 -2.90087 1.43793e+06 
201 -0.02995 8.83418e-05 1600.64 273.168 5.02534 5.02595 -2.54451 -3.71375 1.44065e+06 
225 -0.02755 8.83433e-05 1600.62 273.229 5.02655 5.02819 -5.19532 -7.68428 1.45393e+06 
202 -0.02985 8.83423e-05 1600.64 273.169 5.02539 5.02609 -2.56922 -3.77982 1.44083e+06 
203 -0.02975 8.83422e-05 1600.64 273.168 5.02537 5.02615 -2.59706 -3.84803 1.44101e+06 
204 -0.02965 8.83415e-05 1600.64 273.171 5.02538 5.02613 -2.71268 -3.9929 1.44148e+06 
205 -0.02955 8.83426e-05 1600.64 273.175 5.02551 5.02639 -2.78645 -4.12752 1.44201e+06 
206 -0.02945 8.83417e-05 1600.64 273.176 5.02548 5.02636 -2.89921 -4.30887 1.44246e+06 
207 -0.02935 8.83422e-05 1600.64 273.178 5.02555 5.02657 -3.04319 -4.49952 1.44314e+06 
208 -0.02925 8.83425e-05 1600.64 273.182 5.02565 5.02666 -3.09615 -4.54656 1.44346e+06 
209 -0.02915 8.83422e-05 1600.63 273.185 5.02568 5.02677 -3.22146 -4.6809 1.44409e+06 
210 -0.02905 8.83424e-05 1600.63 273.183 5.02565 5.02674 -3.27688 -4.87014 1.44442e+06 
211 -0.02895 8.83424e-05 1600.63 273.187 5.02572 5.02686 -3.40251 -5.06483 1.44496e+06 
212 -0.02885 8.83428e-05 1600.63 273.193 5.02586 5.02707 -3.65286 -5.32623 1.44599e+06 
213 -0.02875 8.8343e-05 1600.63 273.195 5.02591 5.02712 -3.67462 -5.45784 1.44624e+06 
214 -0.02865 8.83429e-05 1600.63 273.196 5.02592 5.02722 -3.78283 -5.60023 1.44677e+06 
215 -0.02855 8.83425e-05 1600.63 273.2 5.02598 5.0273 -3.9082 -5.79793 1.44745e+06 
216 -0.02845 8.83428e-05 1600.63 273.202 5.02602 5.02739 -4.02246 -5.99836 1.448e+06 
217 -0.02835 8.83435e-05 1600.63 273.206 5.02615 5.02764 -4.16381 -6.1488 1.44871e+06 
218 -0.02825 8.8343e-05 1600.63 273.208 5.02614 5.02756 -4.28702 -6.34021 1.44918e+06 
219 -0.02815 8.83434e-05 1600.63 273.212 5.02625 5.02778 -4.43208 -6.50275 1.45001e+06 
220 -0.02805 8.83425e-05 1600.63 273.212 5.02619 5.02773 -4.5075 -6.71524 1.45044e+06 
221 -0.02795 8.83439e-05 1600.63 273.217 5.02636 5.0279 -4.64433 -6.85954 1.45107e+06 
222 -0.02785 8.83428e-05 1600.62 273.222 5.02639 5.02797 -4.79539 -7.10079 1.45187e+06 
223 -0.02775 8.83429e-05 1600.62 273.225 5.02645 5.02809 -5.05438 -7.44992 1.45295e+06 
224 -0.02765 8.83437e-05 1600.62 273.229 5.02657 5.02824 -5.15439 -7.57941 1.45348e+06 
234 -0.02665 8.83451e-05 1600.61 273.273 5.02746 5.02989 -7.17478 -10.4684 1.46313e+06 
226 -0.02745 8.83431e-05 1600.62 273.236 5.02667 5.02838 -5.44284 -7.97386 1.45493e+06 
227 -0.02735 8.83441e-05 1600.62 273.237 5.02675 5.02854 -5.61478 -8.28068 1.45578e+06 
228 -0.02725 8.83427e-05 1600.62 273.244 5.02679 5.02864 -5.80953 -8.59029 1.45672e+06 
229 -0.02715 8.83444e-05 1600.62 273.245 5.02692 5.02889 -5.92598 -8.73928 1.45733e+06 
230 -0.02705 8.83436e-05 1600.62 273.252 5.027 5.02916 -6.2028 -9.13383 1.45861e+06 
231 -0.02695 8.83436e-05 1600.61 273.259 5.02712 5.02927 -6.53797 -9.55352 1.45994e+06 
232 -0.02685 8.8344e-05 1600.61 273.265 5.02725 5.0296 -6.7357 -9.89717 1.46106e+06 
233 -0.02675 8.83437e-05 1600.61 273.268 5.02729 5.02963 -6.91621 -10.1594 1.46188e+06 
235 -0.02655 8.83436e-05 1600.61 273.279 5.02749 5.02996 -7.42289 -10.8388 1.46427e+06 
236 -0.02645 8.83446e-05 1600.61 273.288 5.0277 5.03033 -7.71488 -11.282 1.46573e+06 
237 -0.02635 8.83442e-05 1600.61 273.29 5.02772 5.03036 -7.87646 -11.5545 1.46657e+06 
238 -0.02625 8.83448e-05 1600.61 273.299 5.02792 5.03067 -8.29956 -12.1479 1.46841e+06 
239 -0.02615 8.83444e-05 1600.6 273.305 5.02801 5.03082 -8.48829 -12.4748 1.46942e+06 
240 -0.02605 8.83445e-05 1600.6 273.315 5.0282 5.03115 -8.93712 -13.0687 1.47144e+06 
241 -0.02595 8.83449e-05 1600.6 273.323 5.02837 5.03138 -9.21767 -13.4092 1.47276e+06 
242 -0.02585 8.83447e-05 1600.6 273.327 5.02843 5.03151 -9.49398 -13.8391 1.4742e+06 
243 -0.02575 8.83446e-05 1600.6 273.337 5.02862 5.03188 -9.89249 -14.4986 1.47603e+06 
244 -0.02565 8.83457e-05 1600.6 273.343 5.02879 5.03212 -10.1312 -14.8623 1.47738e+06 
245 -0.02555 8.83445e-05 1600.59 273.347 5.02879 5.03217 -10.2857 -15.1383 1.47834e+06 
246 -0.02545 8.83451e-05 1600.59 273.361 5.02908 5.03266 -10.9116 -16.0038 1.48115e+06 
247 -0.02535 8.8346e-05 1600.59 273.37 5.02929 5.03296 -11.2852 -16.5086 1.48294e+06 
248 -0.02525 8.83456e-05 1600.59 273.384 5.02954 5.0335 -11.8609 -17.3551 1.48548e+06 
249 -0.02515 8.83454e-05 1600.58 273.39 5.02963 5.03371 -12.1514 -17.8121 1.48715e+06 
250 -0.02505 8.83461e-05 1600.58 273.401 5.02988 5.03418 -12.5954 -18.4767 1.4895e+06 
267 -0.02335 8.83484e-05 1600.53 273.621 5.03406 5.04127 -22.1748 -32.6738 1.53595e+06 
257 -0.02435 8.83463e-05 1600.56 273.469 5.03114 5.03629 -15.6035 -23.0106 1.50459e+06 
258 -0.02425 8.8347e-05 1600.56 273.485 5.03147 5.03686 -16.1435 -23.8623 1.50721e+06 
259 -0.02415 8.83475e-05 1600.56 273.496 5.03171 5.03723 -16.7166 -24.7207 1.51006e+06 
260 -0.02405 8.83469e-05 1600.56 273.513 5.03199 5.03771 -17.4239 -25.6541 1.51306e+06 
261 -0.02395 8.83475e-05 1600.55 273.528 5.03228 5.03813 -17.9875 -26.5148 1.51604e+06 
262 -0.02385 8.83473e-05 1600.55 273.543 5.03256 5.0387 -18.7948 -27.5958 1.51959e+06 
263 -0.02375 8.83487e-05 1600.54 273.561 5.03297 5.03932 -19.489 -28.6309 1.52301e+06 
264 -0.02365 8.83469e-05 1600.54 273.575 5.03313 5.03958 -20.1135 -29.5669 1.52592e+06 
265 -0.02355 8.83482e-05 1600.54 273.592 5.0335 5.04031 -20.9055 -30.6899 1.52973e+06 
266 -0.02345 8.83483e-05 1600.53 273.612 5.03388 5.04083 -21.5856 -31.6876 1.533e+06 
268 -0.02325 8.83486e-05 1600.53 273.643 5.03448 5.04198 -22.9762 -33.8827 1.53985e+06 
269 -0.02315 8.83487e-05 1600.52 273.672 5.03501 5.04296 -24.2008 -35.5755 1.54526e+06 
270 -0.02305 8.83493e-05 1600.52 273.684 5.03526 5.04333 -24.7661 -36.593 1.54826e+06 
271 -0.02295 8.83494e-05 1600.51 273.703 5.03561 5.04394 -25.5612 -37.7659 1.55234e+06 
272 -0.02285 8.83497e-05 1600.51 273.725 5.03605 5.04458 -26.5087 -39.1076 1.55686e+06 
273 -0.02275 8.835e-05 1600.5 273.747 5.03647 5.04532 -27.4186 -40.4687 1.56148e+06 
274 -0.02265 8.83503e-05 1600.5 273.764 5.03679 5.04599 -28.1893 -41.6721 1.56536e+06 
275 -0.02255 8.8351e-05 1600.49 273.79 5.03731 5.04677 -29.2858 -43.2778 1.57045e+06 
251 -0.02495 8.8346e-05 1600.58 273.407 5.02998 5.0343 -12.9307 -18.9924 1.49126e+06 
252 -0.02485 8.83466e-05 1600.58 273.414 5.03014 5.03461 -13.217 -19.4705 1.49287e+06 
253 -0.02475 8.83459e-05 1600.58 273.423 5.03027 5.03484 -13.5219 -19.929 1.49451e+06 
254 -0.02465 8.83466e-05 1600.57 273.436 5.03056 5.03527 -14.1394 -20.8347 1.49741e+06 
255 -0.02455 8.83463e-05 1600.57 273.452 5.03082 5.03576 -14.8376 -21.7936 1.50068e+06 
256 -0.02445 8.83469e-05 1600.57 273.464 5.03108 5.03624 -15.339 -22.568 1.50296e+06 
300 -0.02005 8.83634e-05 1600.26 274.766 5.05597 5.07879 -70.9812 -104.971 1.77119e+06 
289 -0.02115 8.8356e-05 1600.39 274.23 5.0457 5.06122 -48.1822 -71.2906 1.66145e+06 
290 -0.02105 8.83572e-05 1600.38 274.272 5.04654 5.0627 -49.8831 -73.7777 1.66966e+06 
291 -0.02095 8.83583e-05 1600.37 274.318 5.04745 5.06418 -51.8027 -76.5854 1.67871e+06 
292 -0.02085 8.83578e-05 1600.36 274.362 5.04822 5.06574 -53.7926 -79.6314 1.68789e+06 
293 -0.02075 8.8359e-05 1600.35 274.406 5.0491 5.06702 -55.5788 -82.0563 1.69682e+06 
294 -0.02065 8.83586e-05 1600.34 274.444 5.04977 5.06806 -57.1744 -84.3978 1.70486e+06 
295 -0.02055 8.83605e-05 1600.33 274.5 5.05091 5.06999 -59.6479 -88.0542 1.71643e+06 
296 -0.02045 8.836e-05 1600.32 274.55 5.05181 5.07142 -61.891 -91.1269 1.72692e+06 
297 -0.02035 8.83609e-05 1600.3 274.608 5.05292 5.07335 -64.227 -94.5887 1.73781e+06 
298 -0.02025 8.83623e-05 1600.29 274.656 5.0539 5.07509 -66.3542 -97.8629 1.74855e+06 
299 -0.02015 8.8362e-05 1600.28 274.699 5.05467 5.07654 -68.2003 -101.024 1.75884e+06 
276 -0.02245 8.83512e-05 1600.49 273.809 5.03767 5.04739 -30.1492 -44.5509 1.57497e+06 
277 -0.02235 8.83508e-05 1600.48 273.842 5.03826 5.04838 -31.5501 -46.5356 1.58113e+06 
278 -0.02225 8.83517e-05 1600.47 273.869 5.03881 5.04942 -32.6385 -48.2379 1.58669e+06 
279 -0.02215 8.83523e-05 1600.47 273.897 5.03935 5.05031 -33.8659 -50.0607 1.59237e+06 
280 -0.02205 8.83525e-05 1600.46 273.929 5.03995 5.05133 -35.1313 -51.8116 1.59835e+06 
281 -0.02195 8.8353e-05 1600.45 273.967 5.04068 5.05252 -36.9222 -54.1795 1.60611e+06 
282 -0.02185 8.83537e-05 1600.45 273.993 5.04119 5.05346 -37.868 -55.9131 1.61156e+06 
283 -0.02175 8.83539e-05 1600.44 274.023 5.04175 5.05434 -39.1878 -57.81 1.61785e+06 
284 -0.02165 8.83536e-05 1600.43 274.047 5.04218 5.05516 -40.3243 -59.6609 1.62378e+06 
285 -0.02155 8.83552e-05 1600.42 274.082 5.04291 5.05631 -41.7145 -61.5633 1.63023e+06 
286 -0.02145 8.83543e-05 1600.41 274.121 5.0436 5.05755 -43.4102 -64.1154 1.63832e+06 
287 -0.02135 8.8356e-05 1600.41 274.156 5.04434 5.05889 -44.8857 -66.3801 1.64562e+06 
288 -0.02125 8.83558e-05 1600.4 274.197 5.04508 5.0601 -46.6352 -68.9246 1.65371e+06 
301 -0.01995 8.83638e-05 1600.25 274.812 5.05686 5.08028 -73.1414 -108.305 1.78233e+06 
321 -0.01795 8.83876e-05 1599.82 276.66 5.09222 5.14192 -152.267 -225.484 2.15755e+06 
322 -0.01785 8.83894e-05 1599.79 276.787 5.09467 5.14605 -157.745 -233.38 2.18368e+06 
323 -0.01775 8.83902e-05 1599.75 276.924 5.09723 5.15058 -163.612 -242.286 2.21131e+06 
324 -0.01765 8.8394e-05 1599.72 277.054 5.09984 5.15517 -169.162 -250.838 2.239e+06 
325 -0.01755 8.83948e-05 1599.69 277.198 5.10254 5.1599 -175.323 -259.987 2.26832e+06 
302 -0.01985 8.83639e-05 1600.24 274.872 5.05797 5.0822 -75.5916 -112.046 1.79426e+06 
303 -0.01975 8.83651e-05 1600.22 274.951 5.05948 5.08491 -79.1573 -116.991 1.81e+06 
304 -0.01965 8.83663e-05 1600.21 275.013 5.06069 5.08688 -81.6028 -120.636 1.82229e+06 
305 -0.01955 8.83666e-05 1600.19 275.078 5.06191 5.08912 -84.5412 -125.208 1.83646e+06 
306 -0.01945 8.83681e-05 1600.18 275.157 5.06344 5.09182 -87.8871 -130.093 1.85198e+06 
307 -0.01935 8.83688e-05 1600.15 275.245 5.0651 5.09488 -91.5932 -135.703 1.86896e+06 
308 -0.01925 8.837e-05 1600.13 275.326 5.06666 5.09747 -95.072 -140.711 1.88565e+06 
309 -0.01915 8.83706e-05 1600.12 275.396 5.06799 5.09979 -98.1948 -145.543 1.90119e+06 
310 -0.01905 8.83725e-05 1600.1 275.485 5.06973 5.10267 -101.883 -150.87 1.91834e+06 
311 -0.01895 8.83737e-05 1600.07 275.586 5.07166 5.10606 -106.28 -157.202 1.93887e+06 
312 -0.01885 8.83738e-05 1600.06 275.656 5.07294 5.10825 -109.221 -161.678 1.9539e+06 
313 -0.01875 8.83752e-05 1600.03 275.755 5.07485 5.11167 -113.527 -168.1 1.97403e+06 
314 -0.01865 8.83774e-05 1600.01 275.857 5.07686 5.11512 -117.781 -174.427 1.99399e+06 
315 -0.01855 8.83779e-05 1599.98 275.976 5.07909 5.11913 -123.011 -182.075 2.01827e+06 
316 -0.01845 8.83797e-05 1599.96 276.071 5.08093 5.12211 -127.035 -187.804 2.0375e+06 
317 -0.01835 8.83816e-05 1599.94 276.163 5.08272 5.12528 -131.002 -194.024 2.05737e+06 
318 -0.01825 8.83824e-05 1599.91 276.269 5.08474 5.12891 -135.577 -201.1 2.07978e+06 
319 -0.01815 8.83839e-05 1599.88 276.396 5.08715 5.13332 -140.924 -209.105 2.10438e+06 
320 -0.01805 8.83862e-05 1599.85 276.525 5.08965 5.1376 -146.469 -217.259 2.13042e+06 
334 -0.01665 8.8416e-05 1599.31 278.826 5.13375 5.21408 -245.075 -363.124 2.59818e+06 
326 -0.01745 8.83964e-05 1599.66 277.329 5.10504 5.16411 -181.016 -268.467 2.29634e+06 
327 -0.01735 8.83976e-05 1599.62 277.495 5.10817 5.16963 -188.06 -278.851 2.3293e+06 
328 -0.01725 8.84009e-05 1599.58 277.666 5.1115 5.17536 -195.482 -289.62 2.36451e+06 
329 -0.01715 8.8403e-05 1599.54 277.848 5.11499 5.18138 -203.228 -300.987 2.40027e+06 
330 -0.01705 8.84056e-05 1599.5 278.035 5.11857 5.18746 -211.192 -312.625 2.43812e+06 
331 -0.01695 8.84076e-05 1599.45 278.214 5.12198 5.19332 -218.886 -323.9 2.47492e+06 
332 -0.01685 8.84108e-05 1599.41 278.393 5.12547 5.19958 -226.451 -335.741 2.51127e+06 
333 -0.01675 8.84124e-05 1599.36 278.604 5.12944 5.20642 -235.569 -348.981 2.55404e+06 
335 -0.01655 8.8419e-05 1599.25 279.041 5.13786 5.22139 -254.254 -376.97 2.64168e+06 
336 -0.01645 8.84216e-05 1599.2 279.276 5.14235 5.2293 -264.351 -392.043 2.68923e+06 
337 -0.01635 8.84253e-05 1599.14 279.506 5.1468 5.237 -274.179 -406.788 2.73616e+06 
338 -0.01625 8.84285e-05 1599.09 279.745 5.1514 5.24498 -284.477 -422.057 2.78465e+06 
339 -0.01615 8.84312e-05 1599.03 279.999 5.15622 5.25358 -295.344 -438.377 2.83627e+06 