TITLE = "DSMC"
VARIABLES = "ID" "X" "rho" "v1" "Ttrans" "p" "p1" "q1" "mv1v1v1" "mvvv1v1"
ZONE T="Ma=5.6", I=800, J=1, K=1, F=POINT
1 -0.04995 8.83402e-05 1723.8 273.101 5.02403 5.02241 -0.039207 0.0514115 1426430.0
2 -0.04985 8.83401e-05 1723.8 273.101 5.02402 5.02239 -0.0218888 0.0772632 1426460.0
3 -0.04975 8.83415e-05 1723.8 273.101 5.02409 5.02247 -0.0670999 0.0379444 1426510.0
4 -0.04965 8.83412e-05 1723.8 273.104 5.02413 5.02253 -0.0716557 0.00690331 1426590.0
5 -0.04955 8.83409e-05 1723.8 273.104 5.02412 5.02265 -0.0980157 -0.0527443 1426720.0
6 -0.04945 8.83408e-05 1723.79 273.102 5.02407 5.02259 -0.0967563 -0.0482783 1426690.0
7 -0.04935 8.83406e-05 1723.8 273.106 5.02413 5.02271 -0.126256 -0.11355 1426840.0
8 -0.04925 8.83409e-05 1723.8 273.104 5.02411 5.0226 -0.127339 -0.126597 1426780.0
9 -0.04915 8.83406e-05 1723.79 273.105 5.02411 5.02265 -0.109491 -0.127113 1426870.0
10 -0.04905 8.83412e-05 1723.8 273.105 5.02414 5.02278 -0.114472 -0.143471 1426930.0
11 -0.04895 8.83407e-05 1723.8 273.102 5.02407 5.02274 -0.163578 -0.185688 1426970.0
12 -0.04885 8.83407e-05 1723.79 273.105 5.02412 5.0228 -0.127892 -0.132276 1427000.0
13 -0.04875 8.8341e-05 1723.8 273.104 5.02413 5.02285 -0.161368 -0.191864 1427080.0
14 -0.04865 8.83412e-05 1723.8 273.105 5.02414 5.02294 -0.17683 -0.25162 1427210.0
15 -0.04855 8.83412e-05 1723.79 273.106 5.02416 5.02294 -0.20739 -0.275556 1427240.0
16 -0.04845 8.83407e-05 1723.79 273.107 5.02415 5.02293 -0.175107 -0.225817 1427230.0
17 -0.04835 8.83413e-05 1723.79 273.106 5.02417 5.02301 -0.192014 -0.295073 1427320.0
18 -0.04825 8.83403e-05 1723.79 273.102 5.02405 5.02296 -0.211335 -0.316592 1427270.0
19 -0.04815 8.83405e-05 1723.79 273.107 5.02416 5.02306 -0.198752 -0.318558 1427400.0
20 -0.04805 8.83422e-05 1723.8 273.106 5.02423 5.02324 -0.220953 -0.363554 1427450.0
21 -0.04795 8.83407e-05 1723.79 273.104 5.0241 5.02313 -0.221625 -0.35573 1427470.0
22 -0.04785 8.8341e-05 1723.79 273.106 5.02415 5.02319 -0.207469 -0.344693 1427440.0
23 -0.04775 8.83405e-05 1723.79 273.106 5.02412 5.02317 -0.242906 -0.381621 1427550.0
24 -0.04765 8.83415e-05 1723.79 273.106 5.02419 5.02329 -0.237492 -0.407861 1427560.0
25 -0.04755 8.83414e-05 1723.79 273.105 5.02416 5.02323 -0.250181 -0.40393 1427580.0
26 -0.04745 8.83407e-05 1723.79 273.105 5.02412 5.02329 -0.238662 -0.400221 1427620.0
27 -0.04735 8.83411e-05 1723.79 273.108 5.0242 5.02331 -0.248054 -0.380512 1427680.0
28 -0.04725 8.83413e-05 1723.79 273.106 5.02418 5.02334 -0.258639 -0.414898 1427710.0
29 -0.04715 8.83409e-05 1723.79 273.106 5.02415 5.02335 -0.263908 -0.41484 1427720.0
30 -0.04705 8.83412e-05 1723.79 273.107 5.02419 5.02342 -0.239309 -0.431726 1427710.0
31 -0.04695 8.8341e-05 1723.79 273.106 5.02416 5.02338 -0.254886 -0.44144 1427760.0
32 -0.04685 8.83404e-05 1723.79 273.105 5.02411 5.02341 -0.263338 -0.482493 1427790.0
33 -0.04675 8.83425e-05 1723.79 273.108 5.02429 5.02356 -0.279783 -0.466727 1427860.0
34 -0.04665 8.83406e-05 1723.79 273.109 5.02419 5.02346 -0.266654 -0.427301 1427860.0
35 -0.04655 8.83414e-05 1723.79 273.108 5.02421 5.0235 -0.285554 -0.475848 1427910.0
36 -0.04645 8.83414e-05 1723.79 273.108 5.02422 5.02341 -0.268714 -0.466637 1427870.0
37 -0.04635 8.83407e-05 1723.79 273.107 5.02417 5.0234 -0.288294 -0.496947 1427900.0
38 -0.04625 8.8341e-05 1723.79 273.108 5.02419 5.02347 -0.284629 -0.516286 1427900.0
39 -0.04615 8.8341e-05 1723.79 273.108 5.02421 5.0236 -0.268366 -0.46913 1427970.0
40 -0.04605 8.8342e-05 1723.79 273.106 5.02422 5.02357 -0.259873 -0.486196 1427950.0
41 -0.04595 8.83405e-05 1723.79 273.107 5.02416 5.02363 -0.275855 -0.497153 1427970.0
42 -0.04585 8.83417e-05 1723.79 273.11 5.02426 5.0238 -0.285671 -0.542793 1428070.0
43 -0.04575 8.83413e-05 1723.79 273.106 5.02417 5.02373 -0.263841 -0.5079 1428050.0
44 -0.04565 8.83417e-05 1723.79 273.109 5.02426 5.02377 -0.294615 -0.53473 1428130.0
45 -0.04555 8.8341e-05 1723.79 273.108 5.0242 5.02368 -0.275783 -0.517146 1428150.0
46 -0.04545 8.83417e-05 1723.79 273.109 5.02426 5.02376 -0.299285 -0.54717 1428150.0
47 -0.04535 8.83411e-05 1723.79 273.108 5.0242 5.02368 -0.293463 -0.553245 1428140.0
48 -0.04525 8.8341e-05 1723.79 273.109 5.02421 5.02371 -0.300906 -0.55171 1428150.0
49 -0.04515 8.83412e-05 1723.79 273.111 5.02426 5.02378 -0.281397 -0.508351 1428190.0
50 -0.04505 8.83416e-05 1723.79 273.108 5.02424 5.0237 -0.303632 -0.480321 1428150.0
51 -0.04495 8.83417e-05 1723.79 273.111 5.02428 5.02376 -0.281571 -0.480213 1428180.0
52 -0.04485 8.83407e-05 1723.79 273.11 5.02421 5.02372 -0.296597 -0.466483 1428150.0
53 -0.04475 8.83413e-05 1723.79 273.11 5.02424 5.02365 -0.298106 -0.494504 1428190.0
54 -0.04465 8.83412e-05 1723.79 273.111 5.02425 5.02365 -0.311471 -0.488755 1428180.0
55 -0.04455 8.83417e-05 1723.79 273.11 5.02428 5.02369 -0.318059 -0.510574 1428240.0
56 -0.04445 8.8341e-05 1723.79 273.108 5.0242 5.02368 -0.311779 -0.487893 1428250.0
57 -0.04435 8.83418e-05 1723.79 273.111 5.0243 5.02378 -0.344504 -0.544911 1428380.0
58 -0.04425 8.83414e-05 1723.79 273.111 5.02428 5.02378 -0.316751 -0.492301 1428300.0
59 -0.04415 8.83408e-05 1723.79 273.11 5.02422 5.02363 -0.318985 -0.49578 1428250.0
60 -0.04405 8.83418e-05 1723.79 273.112 5.02431 5.02375 -0.324044 -0.502654 1428290.0
61 -0.04395 8.83416e-05 1723.79 273.11 5.02427 5.0237 -0.325811 -0.502765 1428300.0
62 -0.04385 8.83406e-05 1723.79 273.109 5.02419 5.0235 -0.343648 -0.512223 1428230.0
63 -0.04375 8.83416e-05 1723.79 273.111 5.02428 5.02355 -0.322695 -0.499668 1428290.0
64 -0.04365 8.83414e-05 1723.79 273.111 5.02427 5.02354 -0.341462 -0.527363 1428290.0
65 -0.04355 8.83417e-05 1723.79 273.11 5.02427 5.02355 -0.353402 -0.559125 1428320.0
66 -0.04345 8.83413e-05 1723.79 273.11 5.02424 5.02352 -0.347924 -0.545497 1428300.0
67 -0.04335 8.83412e-05 1723.79 273.112 5.02427 5.02353 -0.360209 -0.542415 1428300.0
68 -0.04325 8.8341e-05 1723.79 273.11 5.02423 5.02351 -0.379537 -0.591193 1428330.0
69 -0.04315 8.83416e-05 1723.79 273.112 5.0243 5.02361 -0.390006 -0.578376 1428420.0
70 -0.04305 8.8341e-05 1723.79 273.11 5.02424 5.0236 -0.376455 -0.575061 1428370.0
71 -0.04295 8.83421e-05 1723.79 273.11 5.0243 5.02371 -0.388116 -0.588872 1428440.0
72 -0.04285 8.83406e-05 1723.79 273.113 5.02427 5.0236 -0.379527 -0.582819 1428440.0
73 -0.04275 8.83419e-05 1723.79 273.109 5.02426 5.02362 -0.376087 -0.607437 1428440.0
74 -0.04265 8.83405e-05 1723.79 273.112 5.02424 5.02362 -0.351475 -0.562051 1428450.0
75 -0.04255 8.83421e-05 1723.79 273.11 5.0243 5.02365 -0.388195 -0.623755 1428480.0
76 -0.04245 8.83411e-05 1723.79 273.109 5.02423 5.02353 -0.409846 -0.622047 1428500.0
77 -0.04235 8.83409e-05 1723.79 273.114 5.0243 5.02368 -0.424277 -0.626252 1428610.0
78 -0.04225 8.83417e-05 1723.79 273.111 5.02428 5.02368 -0.407274 -0.613882 1428510.0
79 -0.04215 8.83413e-05 1723.79 273.111 5.02426 5.02365 -0.391148 -0.598779 1428540.0
80 -0.04205 8.83411e-05 1723.79 273.113 5.02429 5.02361 -0.416899 -0.628752 1428540.0
81 -0.04195 8.83416e-05 1723.79 273.111 5.02428 5.02366 -0.425462 -0.643607 1428650.0
82 -0.04185 8.83409e-05 1723.79 273.111 5.02425 5.02366 -0.46 -0.662772 1428740.0
83 -0.04175 8.83409e-05 1723.79 273.113 5.02427 5.02372 -0.416614 -0.629034 1428740.0
84 -0.04165 8.83416e-05 1723.79 273.113 5.02431 5.02371 -0.433109 -0.646065 1428670.0
85 -0.04155 8.83414e-05 1723.79 273.112 5.0243 5.02368 -0.463332 -0.655592 1428810.0
86 -0.04145 8.83415e-05 1723.79 273.112 5.0243 5.02373 -0.442927 -0.635308 1428860.0
87 -0.04135 8.83407e-05 1723.79 273.113 5.02427 5.02372 -0.466737 -0.658443 1428890.0
88 -0.04125 8.83416e-05 1723.79 273.113 5.02431 5.02375 -0.451529 -0.629804 1428790.0
89 -0.04115 8.8341e-05 1723.79 273.115 5.02432 5.02372 -0.457581 -0.64658 1428840.0
90 -0.04105 8.83413e-05 1723.79 273.114 5.02432 5.02373 -0.4883 -0.671291 1428890.0
91 -0.04095 8.83412e-05 1723.79 273.113 5.0243 5.02372 -0.510157 -0.70814 1428940.0
92 -0.04085 8.83405e-05 1723.79 273.113 5.02427 5.02367 -0.483582 -0.687009 1428910.0
93 -0.04075 8.83416e-05 1723.79 273.114 5.02434 5.0238 -0.507024 -0.743303 1429070.0
94 -0.04065 8.83416e-05 1723.79 273.114 5.02435 5.02387 -0.524656 -0.774971 1429090.0
95 -0.04055 8.83409e-05 1723.79 273.112 5.02426 5.02385 -0.521556 -0.743044 1429130.0
96 -0.04045 8.83408e-05 1723.79 273.114 5.0243 5.02385 -0.516596 -0.764771 1429140.0
97 -0.04035 8.8341e-05 1723.79 273.115 5.02433 5.02386 -0.520528 -0.727899 1429260.0
98 -0.04025 8.83415e-05 1723.79 273.112 5.02431 5.0239 -0.494054 -0.720285 1429140.0
99 -0.04015 8.83412e-05 1723.79 273.114 5.02431 5.02392 -0.494717 -0.721112 1429200.0
100 -0.04005 8.83414e-05 1723.79 273.113 5.02431 5.02396 -0.498351 -0.729143 1429180.0
101 -0.03995 8.8341e-05 1723.79 273.114 5.02431 5.02396 -0.530862 -0.781436 1429330.0
102 -0.03985 8.83412e-05 1723.79 273.114 5.02433 5.024 -0.529441 -0.805115 1429320.0
103 -0.03975 8.83407e-05 1723.79 273.114 5.02429 5.02392 -0.506399 -0.772223 1429300.0
104 -0.03965 8.83416e-05 1723.79 273.112 5.02429 5.02397 -0.488473 -0.72876 1429250.0
105 -0.03955 8.83412e-05 1723.79 273.114 5.02432 5.02398 -0.539706 -0.822112 1429460.0
106 -0.03945 8.83412e-05 1723.78 273.115 5.02434 5.02404 -0.495788 -0.75562 1429370.0
107 -0.03935 8.83412e-05 1723.79 273.114 5.02432 5.02398 -0.53092 -0.810742 1429410.0
108 -0.03925 8.83414e-05 1723.79 273.113 5.02432 5.02397 -0.542391 -0.831066 1429430.0
109 -0.03915 8.83411e-05 1723.79 273.114 5.0243 5.0238 -0.517094 -0.807946 1429370.0
110 -0.03905 8.8342e-05 1723.79 273.112 5.02432 5.02389 -0.504636 -0.765721 1429370.0
111 -0.03895 8.83407e-05 1723.79 273.115 5.0243 5.02382 -0.527284 -0.790924 1429470.0
112 -0.03885 8.83409e-05 1723.79 273.113 5.02429 5.02378 -0.496957 -0.759033 1429430.0
113 -0.03875 8.83415e-05 1723.79 273.114 5.02434 5.02381 -0.535287 -0.806302 1429650.0
114 -0.03865 8.83413e-05 1723.79 273.115 5.02433 5.02375 -0.550036 -0.783738 1429730.0
115 -0.03855 8.83416e-05 1723.79 273.114 5.02435 5.02386 -0.552835 -0.821525 1429850.0
116 -0.03845 8.83412e-05 1723.79 273.114 5.02432 5.02371 -0.575438 -0.839059 1429800.0
117 -0.03835 8.83421e-05 1723.79 273.117 5.02441 5.02381 -0.618941 -0.867804 1430030.0
118 -0.03825 8.83408e-05 1723.79 273.116 5.02434 5.0237 -0.642218 -0.900789 1430120.0
119 -0.03815 8.83415e-05 1723.79 273.116 5.02437 5.02375 -0.595203 -0.863452 1430050.0
120 -0.03805 8.83406e-05 1723.79 273.115 5.02429 5.02364 -0.61943 -0.863828 1430040.0
121 -0.03795 8.83414e-05 1723.79 273.115 5.02435 5.02371 -0.603635 -0.840969 1430110.0
122 -0.03785 8.83414e-05 1723.79 273.115 5.02435 5.02376 -0.627308 -0.865716 1430190.0
123 -0.03775 8.83408e-05 1723.79 273.115 5.0243 5.02361 -0.602033 -0.873725 1430170.0
124 -0.03765 8.83411e-05 1723.79 273.117 5.02436 5.02374 -0.631758 -0.889296 1430140.0
125 -0.03755 8.83411e-05 1723.79 273.117 5.02437 5.02383 -0.645858 -0.883037 1430350.0
126 -0.03745 8.83415e-05 1723.79 273.117 5.02439 5.0239 -0.66478 -0.924683 1430450.0
127 -0.03735 8.83409e-05 1723.79 273.116 5.02434 5.02379 -0.670832 -0.92628 1430470.0
128 -0.03725 8.83415e-05 1723.79 273.117 5.0244 5.02388 -0.668613 -0.946402 1430550.0
129 -0.03715 8.83414e-05 1723.79 273.117 5.02438 5.02385 -0.689816 -0.974979 1430620.0
130 -0.03705 8.83409e-05 1723.79 273.117 5.02435 5.02386 -0.661838 -0.959169 1430610.0
131 -0.03695 8.83418e-05 1723.79 273.117 5.02441 5.024 -0.691124 -0.981624 1430700.0
132 -0.03685 8.83407e-05 1723.79 273.119 5.02438 5.02401 -0.75003 -1.09459 1430890.0
133 -0.03675 8.83416e-05 1723.79 273.118 5.02441 5.02402 -0.736544 -1.04236 1430830.0
134 -0.03665 8.8341e-05 1723.79 273.12 5.02441 5.02402 -0.749098 -1.09427 1430970.0
135 -0.03655 8.83411e-05 1723.79 273.119 5.0244 5.02392 -0.767589 -1.08275 1431020.0
136 -0.03645 8.83419e-05 1723.79 273.122 5.0245 5.02411 -0.793411 -1.13026 1431220.0
137 -0.03635 8.83408e-05 1723.78 273.119 5.02438 5.02404 -0.767428 -1.0787 1431160.0
138 -0.03625 8.83416e-05 1723.79 273.12 5.02445 5.02405 -0.785865 -1.12741 1431210.0
139 -0.03615 8.83414e-05 1723.78 273.12 5.02443 5.02407 -0.774375 -1.11304 1431290.0
140 -0.03605 8.83405e-05 1723.79 273.121 5.02441 5.02417 -0.819989 -1.18586 1431450.0
141 -0.03595 8.83416e-05 1723.78 273.123 5.0245 5.02422 -0.793197 -1.1465 1431460.0
142 -0.03585 8.83421e-05 1723.79 273.121 5.0245 5.02423 -0.849477 -1.20737 1431710.0
143 -0.03575 8.83414e-05 1723.78 273.122 5.02448 5.02428 -0.849916 -1.23106 1431770.0
144 -0.03565 8.83414e-05 1723.78 273.123 5.0245 5.02429 -0.870618 -1.26979 1431900.0
145 -0.03555 8.83419e-05 1723.78 273.121 5.0245 5.02433 -0.915441 -1.30325 1432110.0
146 -0.03545 8.8341e-05 1723.78 273.126 5.02453 5.02436 -0.907266 -1.31533 1432210.0
147 -0.03535 8.83421e-05 1723.78 273.121 5.02449 5.02445 -0.926108 -1.36923 1432340.0
148 -0.03525 8.83417e-05 1723.79 273.127 5.02459 5.02451 -0.977643 -1.39148 1432630.0
149 -0.03515 8.83416e-05 1723.78 273.123 5.0245 5.02441 -0.986637 -1.406 1432590.0
150 -0.03505 8.83415e-05 1723.78 273.126 5.02455 5.02449 -0.982919 -1.38415 1432690.0
151 -0.03495 8.83424e-05 1723.78 273.126 5.02461 5.02459 -1.06597 -1.48014 1433070.0
152 -0.03485 8.83412e-05 1723.78 273.126 5.02453 5.0246 -1.07685 -1.51683 1433180.0
153 -0.03475 8.83408e-05 1723.78 273.128 5.02456 5.02463 -1.07731 -1.52318 1433260.0
154 -0.03465 8.83415e-05 1723.78 273.127 5.02458 5.02467 -1.20124 -1.71675 1433610.0
155 -0.03455 8.83421e-05 1723.78 273.131 5.02467 5.02467 -1.19588 -1.71694 1433680.0
156 -0.03445 8.83411e-05 1723.78 273.129 5.02459 5.02457 -1.23795 -1.77792 1433890.0
157 -0.03435 8.83422e-05 1723.78 273.132 5.02471 5.02477 -1.29316 -1.87284 1434120.0
158 -0.03425 8.83416e-05 1723.78 273.13 5.02464 5.02473 -1.28878 -1.83283 1434180.0
159 -0.03415 8.83414e-05 1723.78 273.134 5.02469 5.02474 -1.29471 -1.89335 1434290.0
160 -0.03405 8.83416e-05 1723.78 273.132 5.02467 5.02488 -1.39776 -2.01773 1434690.0
161 -0.03395 8.83411e-05 1723.78 273.134 5.02467 5.02485 -1.42552 -2.11105 1434840.0
162 -0.03385 8.83421e-05 1723.78 273.133 5.02472 5.02494 -1.45756 -2.1366 1435030.0
163 -0.03375 8.83419e-05 1723.78 273.136 5.02477 5.02491 -1.4622 -2.12422 1435120.0
164 -0.03365 8.83416e-05 1723.78 273.136 5.02474 5.02492 -1.53218 -2.27072 1435450.0
165 -0.03355 8.83413e-05 1723.78 273.139 5.02479 5.02497 -1.64753 -2.39587 1435870.0
166 -0.03345 8.83425e-05 1723.78 273.138 5.02483 5.02503 -1.70964 -2.46466 1436090.0
167 -0.03335 8.83417e-05 1723.78 273.141 5.02484 5.02503 -1.68201 -2.45941 1436180.0
168 -0.03325 8.83421e-05 1723.78 273.14 5.02485 5.02503 -1.79482 -2.59849 1436650.0
169 -0.03315 8.8342e-05 1723.78 273.143 5.02488 5.02515 -1.85019 -2.67583 1436890.0
170 -0.03305 8.83418e-05 1723.78 273.146 5.02493 5.02519 -1.90782 -2.78888 1437280.0
171 -0.03295 8.83419e-05 1723.78 273.145 5.02493 5.02525 -1.89081 -2.78664 1437290.0
172 -0.03285 8.83418e-05 1723.78 273.145 5.02492 5.02524 -1.96231 -2.87894 1437650.0
173 -0.03275 8.83422e-05 1723.78 273.147 5.02499 5.02542 -2.0146 -2.97445 1437980.0
174 -0.03265 8.83421e-05 1723.78 273.148 5.025 5.0254 -2.08993 -3.04926 1438240.0
175 -0.03255 8.83416e-05 1723.78 273.15 5.025 5.02543 -2.15514 -3.09596 1438640.0
176 -0.03245 8.83425e-05 1723.78 273.15 5.02505 5.02551 -2.2067 -3.21643 1438980.0
177 -0.03235 8.83421e-05 1723.78 273.153 5.02508 5.0255 -2.3197 -3.31824 1439430.0
178 -0.03225 8.83422e-05 1723.78 273.158 5.02517 5.02561 -2.47821 -3.54511 1440200.0
179 -0.03215 8.83422e-05 1723.77 273.157 5.02516 5.02561 -2.51381 -3.60482 1440420.0
180 -0.03205 8.83419e-05 1723.78 273.158 5.02518 5.02563 -2.60991 -3.75921 1440900.0
181 -0.03195 8.83419e-05 1723.77 273.159 5.02519 5.02565 -2.61471 -3.83127 1441060.0
182 -0.03185 8.83421e-05 1723.77 273.157 5.02516 5.0256 -2.59503 -3.8044 1441040.0
183 -0.03175 8.83424e-05 1723.78 273.158 5.0252 5.02563 -2.65615 -3.96235 1441450.0
184 -0.03165 8.83426e-05 1723.77 273.162 5.02527 5.0257 -2.7249 -4.01821 1441780.0
185 -0.03155 8.83422e-05 1723.78 273.163 5.02528 5.02575 -2.86513 -4.25216 1442290.0
186 -0.03145 8.83418e-05 1723.77 273.164 5.02528 5.02573 -2.9272 -4.30378 1442660.0
187 -0.03135 8.83427e-05 1723.77 273.168 5.02539 5.02592 -3.03269 -4.50528 1443330.0
188 -0.03125 8.83422e-05 1723.78 273.171 5.02541 5.02612 -3.14967 -4.65245 1443870.0
189 -0.03115 8.83424e-05 1723.77 273.172 5.02546 5.026 -3.21332 -4.76567 1444330.0
190 -0.03105 8.8342e-05 1723.77 273.175 5.02548 5.02612 -3.35607 -4.91668 1445000.0
191 -0.03095 8.83418e-05 1723.77 273.177 5.02551 5.02615 -3.43193 -5.06142 1445280.0
192 -0.03085 8.83435e-05 1723.77 273.177 5.02561 5.02625 -3.52916 -5.23846 1445910.0
193 -0.03075 8.83419e-05 1723.77 273.178 5.02554 5.02618 -3.572 -5.28972 1446160.0
194 -0.03065 8.83421e-05 1723.77 273.178 5.02555 5.02625 -3.66805 -5.43245 1446740.0
195 -0.03055 8.83422e-05 1723.77 273.187 5.02571 5.02646 -3.82165 -5.65316 1447710.0
196 -0.03045 8.83422e-05 1723.77 273.187 5.02571 5.02648 -4.03551 -5.8747 1448480.0
197 -0.03035 8.83422e-05 1723.77 273.191 5.02579 5.02652 -4.0416 -5.92416 1448820.0
198 -0.03025 8.83422e-05 1723.77 273.195 5.02585 5.02669 -4.185 -6.14499 1449560.0
199 -0.03015 8.83428e-05 1723.77 273.193 5.02587 5.02676 -4.30607 -6.32475 1450240.0
200 -0.03005 8.83418e-05 1723.76 273.196 5.02586 5.02686 -4.45825 -6.52589 1451020.0
201 -0.02995 8.8343e-05 1723.77 273.201 5.02602 5.02691 -4.57923 -6.69816 1451560.0
202 -0.02985 8.83419e-05 1723.77 273.203 5.02599 5.02703 -4.74686 -6.98196 1452440.0
203 -0.02975 8.83424e-05 1723.76 273.206 5.02608 5.02716 -4.8172 -7.11673 1453010.0
204 -0.02965 8.83425e-05 1723.76 273.207 5.02611 5.02729 -4.95955 -7.29817 1453770.0
205 -0.02955 8.83424e-05 1723.76 273.213 5.02621 5.02735 -5.1821 -7.57264 1454780.0
206 -0.02945 8.83424e-05 1723.76 273.216 5.02627 5.02756 -5.38178 -7.84766 1455770.0
207 -0.02935 8.83423e-05 1723.76 273.221 5.02634 5.02767 -5.50661 -8.07449 1456470.0
208 -0.02925 8.83434e-05 1723.76 273.218 5.02637 5.02772 -5.54295 -8.21982 1456810.0
209 -0.02915 8.83418e-05 1723.76 273.221 5.02633 5.02761 -5.58554 -8.27635 1457340.0
210 -0.02905 8.83431e-05 1723.76 273.228 5.02652 5.02793 -5.9326 -8.72533 1458930.0
211 -0.02895 8.83423e-05 1723.76 273.236 5.02663 5.02811 -6.19333 -9.1223 1460160.0
212 -0.02885 8.83424e-05 1723.76 273.235 5.0266 5.02803 -6.23382 -9.18749 1460620.0
213 -0.02875 8.83431e-05 1723.76 273.234 5.02664 5.02818 -6.23273 -9.29774 1460980.0
214 -0.02865 8.83425e-05 1723.76 273.241 5.02672 5.02832 -6.56429 -9.72571 1462390.0
215 -0.02855 8.8343e-05 1723.75 273.247 5.02686 5.02846 -6.79267 -10.0611 1463640.0
216 -0.02845 8.83426e-05 1723.76 273.253 5.02696 5.02865 -7.09121 -10.4504 1465050.0
217 -0.02835 8.83426e-05 1723.75 273.26 5.02708 5.02891 -7.35897 -10.7899 1466400.0
218 -0.02825 8.83428e-05 1723.75 273.263 5.02715 5.029 -7.52756 -11.0624 1467320.0
219 -0.02815 8.83433e-05 1723.75 273.266 5.02723 5.0291 -7.68844 -11.3428 1468310.0
220 -0.02805 8.8343e-05 1723.75 273.272 5.02733 5.02932 -7.90514 -11.6895 1469430.0
221 -0.02795 8.83429e-05 1723.75 273.279 5.02745 5.02954 -8.22099 -12.1368 1471050.0
222 -0.02785 8.83434e-05 1723.75 273.281 5.02751 5.02974 -8.45769 -12.5011 1472260.0
223 -0.02775 8.8343e-05 1723.75 273.289 5.02763 5.02982 -8.75046 -12.9982 1473760.0
224 -0.02765 8.83437e-05 1723.75 273.298 5.02784 5.03017 -9.05662 -13.3738 1475470.0
225 -0.02755 8.83438e-05 1723.75 273.304 5.02796 5.03044 -9.37863 -13.8732 1477120.0
226 -0.02745 8.83427e-05 1723.74 273.313 5.02807 5.03063 -9.85205 -14.4843 1479290.0
227 -0.02735 8.83438e-05 1723.74 273.319 5.02824 5.03087 -10.1993 -15.0537 1481070.0
228 -0.02725 8.83444e-05 1723.74 273.326 5.02839 5.03108 -10.3962 -15.3679 1482450.0
229 -0.02715 8.83438e-05 1723.74 273.333 5.0285 5.03129 -10.6889 -15.8654 1484070.0
230 -0.02705 8.83442e-05 1723.73 273.346 5.02875 5.03172 -11.3231 -16.6831 1486770.0
231 -0.02695 8.8344e-05 1723.73 273.351 5.02883 5.03192 -11.6957 -17.2229 1488790.0
232 -0.02685 8.83434e-05 1723.73 273.36 5.02896 5.0322 -12.0584 -17.7941 1490720.0
233 -0.02675 8.83447e-05 1723.73 273.368 5.02919 5.03249 -12.362 -18.2375 1492490.0
234 -0.02665 8.83447e-05 1723.73 273.378 5.02937 5.03292 -12.8467 -18.9437 1494840.0
235 -0.02655 8.83446e-05 1723.72 273.391 5.02961 5.03335 -13.4964 -19.7869 1497960.0
236 -0.02645 8.8344e-05 1723.72 273.4 5.02973 5.0336 -13.8703 -20.4373 1500050.0
237 -0.02635 8.83444e-05 1723.72 273.407 5.02989 5.03382 -14.1444 -20.9127 1501830.0
238 -0.02625 8.83449e-05 1723.72 273.416 5.03008 5.0341 -14.6904 -21.6289 1504540.0
239 -0.02615 8.83445e-05 1723.72 273.423 5.03018 5.03438 -15.1177 -22.3104 1506630.0
240 -0.02605 8.83458e-05 1723.72 273.435 5.03048 5.03476 -15.4983 -22.9084 1508920.0
241 -0.02595 8.83448e-05 1723.71 273.448 5.03067 5.03518 -16.1324 -23.7928 1511910.0
242 -0.02585 8.83454e-05 1723.71 273.456 5.03084 5.03533 -16.5697 -24.4045 1514430.0
243 -0.02575 8.83447e-05 1723.71 273.466 5.03099 5.03561 -16.9526 -25.1103 1516650.0
244 -0.02565 8.8346e-05 1723.71 273.483 5.03137 5.03617 -17.7768 -26.1308 1520510.0
245 -0.02555 8.83457e-05 1723.71 273.496 5.0316 5.03661 -18.4038 -27.0773 1523900.0
246 -0.02545 8.83456e-05 1723.7 273.498 5.03163 5.03671 -18.4992 -27.3614 1525160.0
247 -0.02535 8.83461e-05 1723.7 273.509 5.03187 5.03718 -19.1533 -28.3772 1528460.0
248 -0.02525 8.83458e-05 1723.69 273.527 5.03218 5.03762 -19.8038 -29.32 1531820.0
249 -0.02515 8.83461e-05 1723.69 273.541 5.03245 5.03815 -20.5971 -30.3709 1535780.0
250 -0.02505 8.83464e-05 1723.69 273.561 5.03283 5.03874 -21.4104 -31.4534 1539720.0
251 -0.02495 8.83458e-05 1723.69 273.572 5.033 5.03904 -21.9535 -32.3564 1543100.0
252 -0.02485 8.8347e-05 1723.68 273.582 5.03326 5.03964 -22.5397 -33.3556 1546130.0
253 -0.02475 8.8346e-05 1723.68 273.596 5.03346 5.04009 -23.1827 -34.4292 1549710.0
254 -0.02465 8.83471e-05 1723.68 273.617 5.0339 5.04062 -23.9979 -35.4706 1554010.0
255 -0.02455 8.83477e-05 1723.67 273.628 5.03414 5.04116 -24.661 -36.5384 1557610.0
256 -0.02445 8.83471e-05 1723.67 273.652 5.03456 5.0417 -25.7292 -38.0327 1562800.0
257 -0.02435 8.83475e-05 1723.66 273.67 5.03491 5.04238 -26.694 -39.4037 1567840.0
258 -0.02425 8.83486e-05 1723.66 273.698 5.03547 5.04333 -27.8285 -41.0928 1573170.0
259 -0.02415 8.83477e-05 1723.65 273.72 5.03583 5.04396 -28.9769 -42.764 1579020.0
260 -0.02405 8.83479e-05 1723.65 273.739 5.0362 5.04459 -29.9129 -44.0964 1583840.0
261 -0.02395 8.83494e-05 1723.64 273.768 5.03681 5.04548 -31.19 -45.8995 1590080.0
262 -0.02385 8.83488e-05 1723.64 273.79 5.03718 5.04621 -32.1266 -47.4282 1594870.0
263 -0.02375 8.83492e-05 1723.64 273.812 5.03761 5.04689 -33.2707 -49.1327 1601190.0
264 -0.02365 8.83498e-05 1723.63 273.826 5.0379 5.04736 -33.9007 -50.146 1604910.0
265 -0.02355 8.8349e-05 1723.62 273.858 5.03845 5.04826 -35.4149 -52.2402 1612210.0
266 -0.02345 8.83504e-05 1723.62 273.889 5.03909 5.04938 -36.7665 -54.2773 1618960.0
267 -0.02335 8.83507e-05 1723.61 273.916 5.03961 5.05032 -38.0647 -56.2073 1625790.0
268 -0.02325 8.8351e-05 1723.61 273.938 5.04004 5.051 -39.1018 -57.781 1631270.0
269 -0.02315 8.83497e-05 1723.6 273.975 5.04064 5.05215 -40.7483 -60.2085 1639390.0
270 -0.02305 8.83525e-05 1723.6 273.998 5.04123 5.05312 -42.0874 -62.1666 1646530.0
271 -0.02295 8.83516e-05 1723.59 274.034 5.04183 5.05417 -43.4725 -64.1483 1653300.0
272 -0.02285 8.83516e-05 1723.58 274.065 5.04241 5.05521 -45.1396 -66.5966 1662040.0
273 -0.02275 8.83527e-05 1723.58 274.095 5.04303 5.05609 -46.4368 -68.4202 1668940.0
274 -0.02265 8.83522e-05 1723.56 274.128 5.0436 5.05735 -48.0289 -71.0147 1677560.0
275 -0.02255 8.83533e-05 1723.56 274.154 5.04414 5.05824 -49.265 -72.9544 1684330.0
276 -0.02245 8.83536e-05 1723.55 274.191 5.04484 5.05955 -50.9402 -75.5489 1693000.0
277 -0.02235 8.83535e-05 1723.54 274.233 5.0456 5.06091 -52.9445 -78.3301 1702700.0
278 -0.02225 8.8354e-05 1723.54 274.267 5.04626 5.06203 -54.548 -80.7639 1711700.0
279 -0.02215 8.8355e-05 1723.53 274.308 5.04707 5.06331 -56.3578 -83.239 1720490.0
280 -0.02205 8.83548e-05 1723.52 274.341 5.04767 5.06451 -58.0701 -86.0758 1730490.0
281 -0.02195 8.83556e-05 1723.51 274.393 5.04866 5.06615 -60.4376 -89.457 1741920.0
282 -0.02185 8.8356e-05 1723.5 274.433 5.04943 5.06746 -62.3089 -92.3524 1752040.0
283 -0.02175 8.83564e-05 1723.49 274.481 5.05033 5.06903 -64.5094 -95.5451 1762960.0
284 -0.02165 8.83564e-05 1723.48 274.527 5.05118 5.07048 -66.8086 -98.9333 1774770.0
285 -0.02155 8.83578e-05 1723.47 274.573 5.0521 5.07218 -68.7993 -102.282 1785620.0
286 -0.02145 8.83576e-05 1723.46 274.624 5.05304 5.07395 -71.2423 -105.89 1797950.0
287 -0.02135 8.83588e-05 1723.45 274.676 5.05406 5.07568 -73.6911 -109.623 1810510.0
288 -0.02125 8.83594e-05 1723.43 274.735 5.05519 5.07766 -76.493 -113.862 1824830.0
289 -0.02115 8.83591e-05 1723.42 274.791 5.0562 5.0793 -78.9484 -117.287 1837250.0
290 -0.02105 8.83608e-05 1723.41 274.852 5.05741 5.0814 -81.9042 -121.573 1852610.0
291 -0.02095 8.83617e-05 1723.4 274.905 5.05843 5.0832 -84.3743 -125.372 1865530.0
292 -0.02085 8.83613e-05 1723.39 274.963 5.05948 5.08496 -87.1529 -129.433 1880140.0
293 -0.02075 8.83631e-05 1723.37 275.043 5.06106 5.08764 -90.8356 -134.604 1897870.0
294 -0.02065 8.83639e-05 1723.35 275.109 5.06232 5.08992 -93.9323 -139.272 1913950.0
295 -0.02055 8.83641e-05 1723.34 275.176 5.06357 5.09215 -97.0775 -144.065 1930670.0
296 -0.02045 8.83646e-05 1723.32 275.25 5.06495 5.09475 -100.586 -149.365 1948700.0
297 -0.02035 8.83665e-05 1723.3 275.334 5.06661 5.09757 -104.475 -154.873 1967860.0
298 -0.02025 8.83669e-05 1723.29 275.403 5.0679 5.09979 -107.728 -159.653 1984870.0
299 -0.02015 8.83674e-05 1723.27 275.487 5.06947 5.10256 -111.523 -165.307 2003990.0
300 -0.02005 8.8369e-05 1723.25 275.581 5.07129 5.10571 -116.009 -171.671 2026200.0
301 -0.01995 8.83697e-05 1723.23 275.653 5.07266 5.10819 -119.478 -177.043 2044610.0
302 -0.01985 8.837e-05 1723.21 275.748 5.07443 5.11132 -123.859 -183.721 2066940.0
303 -0.01975 8.83718e-05 1723.2 275.83 5.07603 5.11407 -127.773 -189.586 2087790.0
304 -0.01965 8.83717e-05 1723.17 275.93 5.07788 5.11711 -132.249 -195.887 2109940.0
305 -0.01955 8.83739e-05 1723.15 276.029 5.07981 5.12072 -137.098 -203.479 2135180.0
306 -0.01945 8.83757e-05 1723.13 276.128 5.08175 5.12404 -141.58 -210.108 2158000.0
307 -0.01935 8.83753e-05 1723.11 276.228 5.08357 5.12733 -146.325 -217.44 2183250.0
308 -0.01925 8.83782e-05 1723.08 276.349 5.08595 5.13144 -151.908 -225.476 2210490.0
309 -0.01915 8.83782e-05 1723.06 276.454 5.08789 5.13477 -156.928 -232.844 2236990.0
310 -0.01905 8.83795e-05 1723.03 276.596 5.09058 5.13958 -163.513 -242.562 2269280.0
311 -0.01895 8.83815e-05 1723.01 276.71 5.0928 5.14324 -168.825 -250.289 2296890.0
312 -0.01885 8.8382e-05 1722.98 276.83 5.09503 5.1474 -174.545 -259.152 2326980.0
313 -0.01875 8.83845e-05 1722.95 276.974 5.09782 5.15233 -181.159 -268.952 2359570.0
314 -0.01865 8.83859e-05 1722.91 277.126 5.1007 5.15718 -188.253 -278.949 2395010.0
315 -0.01855 8.83874e-05 1722.88 277.273 5.10349 5.1619 -195.134 -288.967 2429800.0
316 -0.01845 8.83891e-05 1722.85 277.429 5.10646 5.16727 -202.473 -300.014 2466540.0
317 -0.01835 8.83912e-05 1722.81 277.596 5.10966 5.17291 -210.288 -311.668 2506230.0
318 -0.01825 8.83932e-05 1722.78 277.747 5.11255 5.17805 -217.259 -322.398 2542510.0
319 -0.01815 8.83945e-05 1722.74 277.903 5.1155 5.1833 -224.45 -333.328 2579320.0
320 -0.01805 8.83966e-05 1722.7 278.084 5.11895 5.18939 -233.163 -346.328 2623490.0
321 -0.01795 8.83983e-05 1722.67 278.255 5.1222 5.19477 -241.037 -357.615 2664140.0
322 -0.01785 8.84004e-05 1722.62 278.456 5.12603 5.20172 -250.41 -371.548 2710200.0
323 -0.01775 8.84032e-05 1722.58 278.653 5.12982 5.20806 -259.475 -384.76 2756570.0
324 -0.01765 8.84058e-05 1722.54 278.856 5.1337 5.21498 -269.12 -399.261 2805640.0
325 -0.01755 8.8407e-05 1722.49 279.051 5.13736 5.22124 -278.237 -412.671 2852330.0
326 -0.01745 8.84101e-05 1722.45 279.259 5.14137 5.22847 -287.931 -427.766 2902670.0
327 -0.01735 8.84119e-05 1722.4 279.492 5.14576 5.23607 -298.731 -443.675 2957390.0
328 -0.01725 8.84155e-05 1722.35 279.739 5.15052 5.24423 -310.34 -460.488 3014920.0
329 -0.01715 8.84173e-05 1722.29 279.979 5.15504 5.25232 -321.547 -477.262 3072160.0
330 -0.01705 8.84204e-05 1722.24 280.222 5.15971 5.26057 -333.003 -494.639 3130650.0
331 -0.01695 8.84236e-05 1722.18 280.479 5.16462 5.26909 -344.934 -512.345 3191650.0
332 -0.01685 8.84265e-05 1722.12 280.785 5.17042 5.27933 -359.195 -533.066 3262140.0
333 -0.01675 8.84304e-05 1722.06 281.067 5.17585 5.2889 -372.343 -552.768 3328120.0
334 -0.01665 8.84325e-05 1721.99 281.344 5.18106 5.29804 -385.251 -572.113 3394630.0
335 -0.01655 8.8436e-05 1721.93 281.646 5.18683 5.30832 -399.298 -593.188 3465520.0
336 -0.01645 8.84401e-05 1721.86 281.944 5.19256 5.31805 -413.296 -613.633 3537020.0
337 -0.01635 8.84428e-05 1721.79 282.267 5.19868 5.32877 -428.314 -636.107 3613100.0
338 -0.01625 8.84467e-05 1721.72 282.613 5.20528 5.34068 -444.487 -660.582 3694940.0
339 -0.01615 8.8451e-05 1721.64 282.972 5.21214 5.35278 -461.211 -685.336 3777800.0
340 -0.01605 8.84548e-05 1721.56 283.314 5.21867 5.36397 -477.26 -709.233 3860750.0
341 -0.01595 8.84591e-05 1721.48 283.667 5.22543 5.37612 -493.693 -734.655 3945390.0
342 -0.01585 8.84628e-05 1721.4 284.049 5.23268 5.38881 -511.509 -761.277 4036430.0
343 -0.01575 8.84679e-05 1721.31 284.477 5.24086 5.40303 -531.471 -790.257 4134510.0
344 -0.01565 8.84727e-05 1721.22 284.896 5.24886 5.41697 -550.928 -819.195 4233100.0
345 -0.01555 8.8477e-05 1721.12 285.328 5.25708 5.43159 -571.12 -849.653 4335570.0
346 -0.01545 8.84827e-05 1721.02 285.779 5.26574 5.44673 -592.317 -880.906 4442440.0
347 -0.01535 8.84878e-05 1720.92 286.263 5.27494 5.46292 -614.636 -914.053 4553310.0
348 -0.01525 8.84932e-05 1720.81 286.746 5.28417 5.47941 -637.296 -948.074 4667660.0
349 -0.01515 8.84992e-05 1720.69 287.28 5.29436 5.49733 -662.197 -984.487 4790970.0
350 -0.01505 8.85047e-05 1720.58 287.778 5.30389 5.5143 -685.228 -1019.56 4908770.0
351 -0.01495 8.85112e-05 1720.46 288.331 5.31446 5.53307 -711.175 -1058.39 5039210.0
352 -0.01485 8.85167e-05 1720.34 288.869 5.32472 5.55102 -736.28 -1095.86 5166900.0