ITEM: TIMESTEP
30000
ITEM: NUMBER OF CELLS
800
ITEM: BOX BOUNDS os pp pp
-0.05 0.03
-0.001 0.001
-0.001 0.001
ITEM: CELLS id f_1[1] f_1[2] f_1[3] f_1[4] f_1[5] f_1[6] f_1[7] f_1[8] f_1[9] 
1 -0.04995 8.8342e-05 1723.79 273.113 5.02435 5.02333 0.0817123 0.0530359 1.42655e+06 
2 -0.04985 8.83413e-05 1723.78 273.113 5.02431 5.02329 0.0670858 0.0153584 1.4266e+06 
3 -0.04975 8.83411e-05 1723.79 273.112 5.02428 5.02333 0.0457524 -0.0423507 1.42665e+06 
4 -0.04965 8.83414e-05 1723.79 273.112 5.02429 5.02336 0.0513507 -0.026746 1.4267e+06 
5 -0.04955 8.83411e-05 1723.79 273.116 5.02436 5.02351 0.0248598 -0.0708245 1.42687e+06 
6 -0.04945 8.83413e-05 1723.78 273.113 5.0243 5.0236 -0.00224456 -0.112797 1.42694e+06 
7 -0.04935 8.83418e-05 1723.78 273.116 5.02439 5.02367 -0.0135264 -0.119083 1.42703e+06 
8 -0.04925 8.83412e-05 1723.78 273.116 5.02435 5.02367 -0.0373434 -0.183489 1.42706e+06 
9 -0.04915 8.83417e-05 1723.78 273.117 5.02439 5.02378 -0.0367518 -0.207711 1.42714e+06 
10 -0.04905 8.83419e-05 1723.78 273.116 5.02439 5.02379 -0.0693692 -0.237131 1.42724e+06 
11 -0.04895 8.83412e-05 1723.78 273.117 5.02437 5.02377 -0.088456 -0.241539 1.42736e+06 
12 -0.04885 8.83413e-05 1723.79 273.116 5.02437 5.02377 -0.101504 -0.274609 1.42738e+06 
13 -0.04875 8.83417e-05 1723.78 273.116 5.02438 5.02388 -0.0917487 -0.279677 1.42746e+06 
14 -0.04865 8.83415e-05 1723.78 273.118 5.02441 5.024 -0.110316 -0.324156 1.42756e+06 
15 -0.04855 8.83417e-05 1723.78 273.117 5.0244 5.02394 -0.101772 -0.324152 1.42747e+06 
16 -0.04845 8.83416e-05 1723.78 273.115 5.02437 5.02395 -0.111442 -0.324585 1.42748e+06 
17 -0.04835 8.83411e-05 1723.78 273.118 5.02438 5.02397 -0.109133 -0.339214 1.42756e+06 
18 -0.04825 8.83418e-05 1723.78 273.118 5.02443 5.024 -0.148852 -0.380905 1.4276e+06 
19 -0.04815 8.83416e-05 1723.78 273.119 5.02442 5.024 -0.146691 -0.359412 1.42765e+06 
20 -0.04805 8.8341e-05 1723.78 273.118 5.02438 5.0239 -0.171052 -0.416399 1.42764e+06 
21 -0.04795 8.83411e-05 1723.78 273.117 5.02437 5.02381 -0.151815 -0.3664 1.42764e+06 
22 -0.04785 8.83424e-05 1723.79 273.119 5.02447 5.02398 -0.172584 -0.411856 1.42773e+06 
23 -0.04775 8.83403e-05 1723.78 273.119 5.02435 5.0238 -0.162673 -0.394545 1.42772e+06 
24 -0.04765 8.83425e-05 1723.78 273.118 5.02446 5.02394 -0.188305 -0.420004 1.42779e+06 
25 -0.04755 8.83411e-05 1723.78 273.118 5.02438 5.02388 -0.168464 -0.393923 1.42779e+06 
34 -0.04665 8.83413e-05 1723.78 273.116 5.02436 5.02401 -0.240236 -0.477708 1.42801e+06 
33 -0.04675 8.8342e-05 1723.78 273.12 5.02447 5.02409 -0.212704 -0.459933 1.42805e+06 
35 -0.04655 8.83415e-05 1723.78 273.119 5.02442 5.02401 -0.214863 -0.493673 1.42808e+06 
36 -0.04645 8.83421e-05 1723.78 273.119 5.02447 5.02404 -0.216925 -0.492479 1.42808e+06 
37 -0.04635 8.83414e-05 1723.78 273.118 5.0244 5.02395 -0.208933 -0.466398 1.42804e+06 
38 -0.04625 8.83425e-05 1723.78 273.117 5.02444 5.02394 -0.21421 -0.480049 1.42808e+06 
39 -0.04615 8.83405e-05 1723.78 273.118 5.02435 5.02389 -0.197699 -0.445293 1.42807e+06 
40 -0.04605 8.83417e-05 1723.78 273.116 5.02437 5.02395 -0.221629 -0.473591 1.42811e+06 
41 -0.04595 8.83413e-05 1723.78 273.118 5.02439 5.024 -0.209304 -0.447152 1.42814e+06 
42 -0.04585 8.83421e-05 1723.78 273.118 5.02444 5.02408 -0.229367 -0.494726 1.42818e+06 
43 -0.04575 8.83414e-05 1723.78 273.117 5.02438 5.02397 -0.240918 -0.483809 1.42814e+06 
44 -0.04565 8.83418e-05 1723.78 273.119 5.02444 5.02401 -0.225034 -0.497906 1.42817e+06 
45 -0.04555 8.83412e-05 1723.78 273.116 5.02436 5.02392 -0.219821 -0.480187 1.42816e+06 
46 -0.04545 8.83418e-05 1723.78 273.118 5.02442 5.02402 -0.267952 -0.506511 1.42824e+06 
47 -0.04535 8.83417e-05 1723.78 273.119 5.02445 5.02396 -0.218649 -0.453397 1.42821e+06 
48 -0.04525 8.83415e-05 1723.78 273.117 5.02439 5.02392 -0.232051 -0.462715 1.42821e+06 
49 -0.04515 8.83416e-05 1723.78 273.119 5.02443 5.02393 -0.227592 -0.453579 1.42823e+06 
50 -0.04505 8.83416e-05 1723.78 273.116 5.02437 5.02386 -0.246959 -0.474268 1.42824e+06 
26 -0.04745 8.83415e-05 1723.79 273.118 5.02441 5.02393 -0.182474 -0.425105 1.4278e+06 
27 -0.04735 8.8341e-05 1723.78 273.118 5.02437 5.02395 -0.194517 -0.422587 1.42789e+06 
28 -0.04725 8.83419e-05 1723.78 273.118 5.02443 5.02404 -0.201613 -0.430663 1.42794e+06 
29 -0.04715 8.8341e-05 1723.78 273.119 5.0244 5.02408 -0.206107 -0.464759 1.42801e+06 
30 -0.04705 8.83422e-05 1723.78 273.117 5.02443 5.02401 -0.197447 -0.440292 1.42796e+06 
31 -0.04695 8.83406e-05 1723.78 273.119 5.02437 5.02406 -0.219431 -0.478483 1.42804e+06 
32 -0.04685 8.83425e-05 1723.78 273.116 5.02443 5.02404 -0.219329 -0.45517 1.42802e+06 
67 -0.04335 8.83416e-05 1723.78 273.118 5.02442 5.0241 -0.291674 -0.483516 1.42857e+06 
65 -0.04355 8.83422e-05 1723.78 273.117 5.02442 5.02408 -0.279184 -0.479534 1.42851e+06 
66 -0.04345 8.83414e-05 1723.78 273.117 5.02439 5.0241 -0.305477 -0.499292 1.42858e+06 
68 -0.04325 8.83414e-05 1723.78 273.118 5.02439 5.02407 -0.300183 -0.471744 1.42855e+06 
69 -0.04315 8.83413e-05 1723.78 273.119 5.02441 5.02403 -0.276313 -0.46685 1.42857e+06 
70 -0.04305 8.83417e-05 1723.78 273.116 5.02438 5.02411 -0.321595 -0.503594 1.42865e+06 
71 -0.04295 8.83425e-05 1723.78 273.118 5.02447 5.02413 -0.307525 -0.478941 1.4287e+06 
72 -0.04285 8.83407e-05 1723.78 273.118 5.02436 5.02405 -0.320433 -0.488538 1.42868e+06 
73 -0.04275 8.8342e-05 1723.78 273.117 5.02443 5.02414 -0.369505 -0.528067 1.42877e+06 
74 -0.04265 8.83415e-05 1723.78 273.12 5.02445 5.02418 -0.378258 -0.562361 1.42885e+06 
75 -0.04255 8.83414e-05 1723.78 273.119 5.02441 5.02412 -0.357294 -0.530028 1.42878e+06 
51 -0.04495 8.83415e-05 1723.78 273.118 5.0244 5.02389 -0.246495 -0.468714 1.42833e+06 
52 -0.04485 8.83414e-05 1723.78 273.117 5.02438 5.02381 -0.244609 -0.475274 1.42827e+06 
53 -0.04475 8.8342e-05 1723.78 273.118 5.02444 5.02391 -0.268326 -0.495954 1.42835e+06 
54 -0.04465 8.83421e-05 1723.78 273.116 5.0244 5.02386 -0.271911 -0.498195 1.42835e+06 
55 -0.04455 8.83412e-05 1723.78 273.117 5.02438 5.02384 -0.23989 -0.500231 1.42832e+06 
56 -0.04445 8.83421e-05 1723.78 273.117 5.02442 5.02397 -0.255553 -0.515034 1.4284e+06 
57 -0.04435 8.83419e-05 1723.78 273.118 5.02442 5.02389 -0.243878 -0.504173 1.4284e+06 
58 -0.04425 8.8342e-05 1723.79 273.117 5.02441 5.02393 -0.246778 -0.499141 1.42836e+06 
59 -0.04415 8.83422e-05 1723.78 273.119 5.02447 5.0241 -0.228318 -0.474894 1.42849e+06 
60 -0.04405 8.83413e-05 1723.78 273.116 5.02435 5.02397 -0.254145 -0.502127 1.42844e+06 
61 -0.04395 8.83423e-05 1723.78 273.119 5.02446 5.02411 -0.267403 -0.54029 1.42854e+06 
62 -0.04385 8.83412e-05 1723.78 273.117 5.02438 5.02401 -0.260865 -0.496471 1.42849e+06 
63 -0.04375 8.8342e-05 1723.78 273.117 5.02442 5.02407 -0.268714 -0.496124 1.42852e+06 
64 -0.04365 8.8341e-05 1723.78 273.118 5.02439 5.02399 -0.268498 -0.49422 1.42851e+06 
100 -0.04005 8.83418e-05 1723.78 273.123 5.02451 5.02446 -0.477978 -0.641956 1.42942e+06 
97 -0.04035 8.8342e-05 1723.78 273.125 5.02456 5.02453 -0.491362 -0.717714 1.42945e+06 
98 -0.04025 8.83417e-05 1723.78 273.123 5.02452 5.02439 -0.479287 -0.669108 1.42938e+06 
99 -0.04015 8.83416e-05 1723.78 273.124 5.02452 5.02448 -0.494329 -0.685363 1.42944e+06 
76 -0.04245 8.83418e-05 1723.78 273.122 5.0245 5.02427 -0.355428 -0.540827 1.4288e+06 
77 -0.04235 8.83412e-05 1723.78 273.119 5.02441 5.0242 -0.369753 -0.547404 1.42881e+06 
78 -0.04225 8.8341e-05 1723.78 273.12 5.02441 5.02421 -0.384214 -0.566505 1.42887e+06 
79 -0.04215 8.83422e-05 1723.78 273.12 5.02449 5.02438 -0.402281 -0.600987 1.42902e+06 
80 -0.04205 8.83414e-05 1723.78 273.122 5.02449 5.02439 -0.418941 -0.626898 1.42913e+06 
81 -0.04195 8.8342e-05 1723.78 273.119 5.02445 5.02435 -0.409742 -0.617548 1.42899e+06 
82 -0.04185 8.83419e-05 1723.78 273.121 5.02449 5.02433 -0.40613 -0.608217 1.42903e+06 
83 -0.04175 8.83415e-05 1723.78 273.119 5.02442 5.0243 -0.402377 -0.565166 1.42904e+06 
84 -0.04165 8.83418e-05 1723.78 273.121 5.02447 5.02429 -0.402708 -0.563759 1.42901e+06 
85 -0.04155 8.8341e-05 1723.78 273.121 5.02443 5.02429 -0.404193 -0.558588 1.42899e+06 
86 -0.04145 8.83424e-05 1723.78 273.122 5.02453 5.02453 -0.432512 -0.604593 1.42912e+06 
87 -0.04135 8.8341e-05 1723.78 273.122 5.02446 5.02432 -0.441253 -0.59935 1.42917e+06 
88 -0.04125 8.83419e-05 1723.78 273.122 5.02451 5.02438 -0.424939 -0.604512 1.42916e+06 
89 -0.04115 8.83421e-05 1723.78 273.12 5.02447 5.02437 -0.419466 -0.576282 1.42911e+06 
90 -0.04105 8.83417e-05 1723.78 273.119 5.02444 5.02437 -0.419751 -0.611907 1.42918e+06 
91 -0.04095 8.8342e-05 1723.78 273.124 5.02454 5.02448 -0.414946 -0.589209 1.42918e+06 
92 -0.04085 8.83417e-05 1723.78 273.119 5.02444 5.02441 -0.433768 -0.615627 1.42922e+06 
93 -0.04075 8.8342e-05 1723.78 273.123 5.02452 5.02437 -0.460874 -0.675319 1.42929e+06 
94 -0.04065 8.83415e-05 1723.78 273.122 5.02449 5.02444 -0.488911 -0.73135 1.42936e+06 
95 -0.04055 8.83416e-05 1723.78 273.126 5.02457 5.02442 -0.470798 -0.705146 1.42943e+06 
96 -0.04045 8.83418e-05 1723.78 273.121 5.02449 5.02445 -0.501902 -0.746691 1.42944e+06 
101 -0.03995 8.83419e-05 1723.78 273.124 5.02454 5.02447 -0.499958 -0.670145 1.42945e+06 
102 -0.03985 8.83418e-05 1723.78 273.123 5.02451 5.02443 -0.5067 -0.677529 1.42942e+06 
103 -0.03975 8.83413e-05 1723.78 273.125 5.02452 5.0245 -0.508392 -0.668679 1.42951e+06 
104 -0.03965 8.83421e-05 1723.78 273.126 5.02459 5.02461 -0.522627 -0.646967 1.42957e+06 
105 -0.03955 8.83415e-05 1723.78 273.122 5.02449 5.02449 -0.523612 -0.663162 1.42952e+06 
106 -0.03945 8.83415e-05 1723.78 273.124 5.02452 5.02453 -0.522831 -0.659578 1.42964e+06 
107 -0.03935 8.83422e-05 1723.78 273.126 5.0246 5.0246 -0.58784 -0.744288 1.4297e+06 
108 -0.03925 8.83413e-05 1723.78 273.124 5.0245 5.02446 -0.536893 -0.66489 1.42964e+06 
109 -0.03915 8.83417e-05 1723.78 273.124 5.02452 5.02446 -0.590975 -0.745279 1.42971e+06 
110 -0.03905 8.83419e-05 1723.78 273.127 5.0246 5.02455 -0.56 -0.692001 1.42978e+06 
111 -0.03895 8.83418e-05 1723.78 273.126 5.02456 5.02458 -0.574403 -0.722469 1.42984e+06 
112 -0.03885 8.8342e-05 1723.78 273.126 5.02458 5.02461 -0.62556 -0.789791 1.42999e+06 
113 -0.03875 8.83412e-05 1723.78 273.126 5.02453 5.02447 -0.621636 -0.77561 1.42996e+06 
114 -0.03865 8.83414e-05 1723.78 273.126 5.02455 5.02446 -0.586411 -0.750484 1.42996e+06 
115 -0.03855 8.83419e-05 1723.78 273.127 5.02459 5.02447 -0.642446 -0.788402 1.43008e+06 
116 -0.03845 8.8341e-05 1723.78 273.126 5.02453 5.02446 -0.605043 -0.777812 1.43008e+06 
117 -0.03835 8.83418e-05 1723.78 273.127 5.02459 5.02444 -0.619864 -0.756857 1.43011e+06 
118 -0.03825 8.83411e-05 1723.78 273.126 5.02454 5.02444 -0.627272 -0.769671 1.43026e+06 
119 -0.03815 8.8342e-05 1723.78 273.127 5.0246 5.02452 -0.638626 -0.786328 1.43026e+06 
120 -0.03805 8.83415e-05 1723.78 273.127 5.02457 5.02456 -0.653945 -0.805894 1.43026e+06 
121 -0.03795 8.83415e-05 1723.78 273.126 5.02455 5.02462 -0.622166 -0.810375 1.4303e+06 
122 -0.03785 8.83425e-05 1723.78 273.125 5.02459 5.02466 -0.677151 -0.857462 1.43043e+06 
123 -0.03775 8.83406e-05 1723.78 273.129 5.02456 5.02467 -0.754176 -0.925531 1.4308e+06 
124 -0.03765 8.83426e-05 1723.78 273.127 5.02463 5.02477 -0.669976 -0.872043 1.43061e+06 
125 -0.03755 8.83422e-05 1723.78 273.126 5.0246 5.02468 -0.698454 -0.903363 1.43066e+06 
134 -0.03665 8.83422e-05 1723.77 273.131 5.02469 5.02489 -0.868326 -1.20575 1.43178e+06 
129 -0.03715 8.83422e-05 1723.78 273.127 5.02462 5.0248 -0.729061 -0.960251 1.43114e+06 
130 -0.03705 8.83418e-05 1723.78 273.129 5.02463 5.02475 -0.755961 -0.995364 1.43117e+06 
131 -0.03695 8.83422e-05 1723.78 273.127 5.02461 5.02478 -0.774491 -1.04176 1.4313e+06 
132 -0.03685 8.83416e-05 1723.78 273.132 5.02467 5.02489 -0.829266 -1.12265 1.43159e+06 
133 -0.03675 8.83426e-05 1723.78 273.131 5.02471 5.02487 -0.838294 -1.14817 1.43149e+06 
135 -0.03655 8.83419e-05 1723.78 273.13 5.02464 5.02484 -0.862574 -1.14375 1.43167e+06 
136 -0.03645 8.83418e-05 1723.78 273.132 5.02469 5.0249 -0.883368 -1.20305 1.43189e+06 
137 -0.03635 8.83426e-05 1723.77 273.133 5.02474 5.02499 -0.947961 -1.27233 1.43218e+06 
138 -0.03625 8.8342e-05 1723.78 273.133 5.02471 5.025 -0.963135 -1.3387 1.43223e+06 
139 -0.03615 8.83422e-05 1723.77 273.134 5.02475 5.02503 -0.924659 -1.27152 1.43217e+06 
140 -0.03605 8.83424e-05 1723.78 273.132 5.02473 5.02499 -0.955659 -1.32843 1.43228e+06 
141 -0.03595 8.83421e-05 1723.77 273.133 5.02473 5.02499 -1.01492 -1.41337 1.43253e+06 
142 -0.03585 8.83419e-05 1723.77 273.135 5.02473 5.02503 -1.02996 -1.45689 1.43264e+06 
143 -0.03575 8.83418e-05 1723.78 273.134 5.02472 5.02494 -1.04538 -1.44248 1.43271e+06 
144 -0.03565 8.83423e-05 1723.78 273.134 5.02474 5.02498 -1.05409 -1.48026 1.43293e+06 
145 -0.03555 8.83426e-05 1723.78 273.137 5.02482 5.02507 -1.09599 -1.50467 1.43311e+06 
146 -0.03545 8.83421e-05 1723.77 273.138 5.02481 5.02511 -1.1188 -1.57172 1.43331e+06 
147 -0.03535 8.83426e-05 1723.77 273.135 5.02478 5.02504 -1.13711 -1.59782 1.43331e+06 
148 -0.03525 8.83429e-05 1723.78 273.137 5.02483 5.02513 -1.22059 -1.70208 1.43362e+06 
149 -0.03515 8.83417e-05 1723.77 273.141 5.02485 5.02523 -1.26875 -1.74535 1.43399e+06 
150 -0.03505 8.83426e-05 1723.78 273.142 5.02491 5.02524 -1.34959 -1.82462 1.43425e+06 
126 -0.03745 8.83417e-05 1723.78 273.128 5.0246 5.02468 -0.683132 -0.91843 1.43067e+06 
127 -0.03735 8.8342e-05 1723.78 273.126 5.02458 5.02467 -0.672528 -0.885789 1.43073e+06 
128 -0.03725 8.8342e-05 1723.78 273.127 5.0246 5.02469 -0.699849 -0.911166 1.43091e+06 
167 -0.03335 8.83426e-05 1723.77 273.149 5.02503 5.02539 -1.74451 -2.45078 1.43685e+06 
161 -0.03395 8.83424e-05 1723.77 273.146 5.02497 5.02528 -1.55331 -2.16998 1.43574e+06 
162 -0.03385 8.83419e-05 1723.77 273.147 5.02496 5.02524 -1.53972 -2.18982 1.43577e+06 
163 -0.03375 8.83427e-05 1723.77 273.145 5.02497 5.02528 -1.56748 -2.25005 1.43586e+06 
164 -0.03365 8.83418e-05 1723.77 273.147 5.02495 5.02524 -1.63336 -2.31759 1.43618e+06 
165 -0.03355 8.8343e-05 1723.77 273.146 5.025 5.02528 -1.6355 -2.34338 1.43632e+06 
166 -0.03345 8.83419e-05 1723.77 273.149 5.02501 5.02533 -1.69752 -2.39857 1.43685e+06 
168 -0.03325 8.83428e-05 1723.77 273.15 5.02507 5.02535 -1.82667 -2.53949 1.43738e+06 
169 -0.03315 8.83424e-05 1723.77 273.152 5.02508 5.02533 -1.81457 -2.55457 1.43724e+06 
170 -0.03305 8.83422e-05 1723.77 273.153 5.0251 5.02545 -1.92905 -2.74767 1.43801e+06 
171 -0.03295 8.83422e-05 1723.77 273.152 5.02508 5.0254 -1.89785 -2.7494 1.43789e+06 
172 -0.03285 8.83429e-05 1723.77 273.155 5.02518 5.02557 -2.01015 -2.92157 1.43851e+06 
173 -0.03275 8.83425e-05 1723.77 273.158 5.0252 5.0256 -2.1401 -3.0764 1.43893e+06 
174 -0.03265 8.83419e-05 1723.77 273.159 5.02518 5.02556 -2.22085 -3.16112 1.43928e+06 
175 -0.03255 8.83431e-05 1723.77 273.161 5.02529 5.02569 -2.17721 -3.17807 1.43932e+06 
151 -0.03495 8.83427e-05 1723.77 273.141 5.0249 5.02521 -1.38424 -1.89997 1.43438e+06 
152 -0.03485 8.83421e-05 1723.78 273.142 5.02488 5.02526 -1.38852 -1.91875 1.43451e+06 
153 -0.03475 8.83427e-05 1723.77 273.142 5.02492 5.02526 -1.38406 -1.90627 1.43456e+06 
154 -0.03465 8.83428e-05 1723.78 273.143 5.02494 5.02534 -1.42495 -1.97688 1.43482e+06 
155 -0.03455 8.83419e-05 1723.77 273.144 5.02491 5.02523 -1.43589 -1.96825 1.43483e+06 
156 -0.03445 8.83426e-05 1723.77 273.142 5.0249 5.02524 -1.48307 -2.08509 1.43504e+06 
157 -0.03435 8.83434e-05 1723.77 273.144 5.02499 5.02531 -1.43438 -2.03343 1.43508e+06 
158 -0.03425 8.83418e-05 1723.77 273.145 5.02493 5.02526 -1.57935 -2.17496 1.43556e+06 
159 -0.03415 8.83425e-05 1723.77 273.145 5.02496 5.02531 -1.59594 -2.21441 1.4357e+06 
160 -0.03405 8.8343e-05 1723.77 273.146 5.02501 5.02531 -1.55841 -2.18964 1.43574e+06 
200 -0.03005 8.83429e-05 1723.76 273.213 5.02623 5.02752 -4.66832 -6.81857 1.45286e+06 
193 -0.03075 8.83423e-05 1723.76 273.19 5.02579 5.02686 -3.69074 -5.37509 1.44769e+06 
194 -0.03065 8.83426e-05 1723.76 273.193 5.02585 5.02699 -3.80328 -5.55831 1.44824e+06 
195 -0.03055 8.83429e-05 1723.76 273.197 5.02594 5.02714 -3.92704 -5.77548 1.44898e+06 
196 -0.03045 8.83429e-05 1723.76 273.196 5.02592 5.02711 -4.00316 -5.92131 1.44954e+06 
197 -0.03035 8.8343e-05 1723.76 273.2 5.026 5.02715 -4.07848 -5.99665 1.44985e+06 
198 -0.03025 8.83425e-05 1723.76 273.204 5.02605 5.02729 -4.29156 -6.28128 1.45092e+06 
199 -0.03015 8.83429e-05 1723.76 273.208 5.02615 5.02746 -4.49578 -6.55831 1.45197e+06 
176 -0.03245 8.83421e-05 1723.77 273.162 5.02525 5.02573 -2.29793 -3.33792 1.43983e+06 
177 -0.03235 8.83422e-05 1723.77 273.163 5.02528 5.0258 -2.36453 -3.4177 1.44014e+06 
178 -0.03225 8.83423e-05 1723.77 273.167 5.02535 5.02584 -2.51806 -3.6006 1.44083e+06 
179 -0.03215 8.83432e-05 1723.77 273.169 5.02543 5.02601 -2.60172 -3.7363 1.44143e+06 
180 -0.03205 8.83425e-05 1723.77 273.169 5.0254 5.02597 -2.6016 -3.73938 1.4414e+06 
181 -0.03195 8.83422e-05 1723.77 273.171 5.02543 5.02597 -2.66655 -3.84799 1.44193e+06 
182 -0.03185 8.83427e-05 1723.77 273.17 5.02544 5.02603 -2.70958 -3.92248 1.44215e+06 
183 -0.03175 8.83421e-05 1723.76 273.171 5.02541 5.02605 -2.7608 -4.00284 1.44243e+06 
184 -0.03165 8.83426e-05 1723.77 273.171 5.02544 5.02608 -2.80858 -4.12098 1.44268e+06 
185 -0.03155 8.83426e-05 1723.77 273.177 5.02557 5.02631 -2.94417 -4.31867 1.44344e+06 
186 -0.03145 8.83422e-05 1723.77 273.178 5.02555 5.02638 -2.99916 -4.41251 1.44389e+06 
187 -0.03135 8.8343e-05 1723.76 273.179 5.02562 5.02645 -3.10361 -4.51188 1.44433e+06 
188 -0.03125 8.83424e-05 1723.76 273.178 5.02556 5.02642 -3.10763 -4.59551 1.44457e+06 
189 -0.03115 8.83422e-05 1723.76 273.181 5.0256 5.02648 -3.17906 -4.65258 1.44496e+06 
190 -0.03105 8.8343e-05 1723.77 273.188 5.02578 5.02676 -3.39977 -4.94692 1.44594e+06 
191 -0.03095 8.83428e-05 1723.76 273.188 5.02576 5.02683 -3.51242 -5.11109 1.44661e+06 
192 -0.03085 8.83427e-05 1723.76 273.187 5.02575 5.02677 -3.4985 -5.0984 1.44671e+06 
201 -0.02995 8.83438e-05 1723.76 273.214 5.0263 5.02762 -4.78631 -6.90542 1.45349e+06 
225 -0.02755 8.83444e-05 1723.74 273.327 5.02841 5.03116 -10.069 -14.6341 1.48088e+06 
202 -0.02985 8.83429e-05 1723.76 273.217 5.02631 5.02763 -4.94093 -7.09022 1.45427e+06 
203 -0.02975 8.83428e-05 1723.76 273.223 5.02642 5.02785 -5.17891 -7.52921 1.45545e+06 
204 -0.02965 8.83431e-05 1723.75 273.228 5.02652 5.02805 -5.32786 -7.6865 1.45638e+06 
205 -0.02955 8.83438e-05 1723.76 273.224 5.02649 5.02806 -5.35047 -7.79492 1.45663e+06 
206 -0.02945 8.83429e-05 1723.75 273.23 5.02655 5.02813 -5.52441 -8.13268 1.4574e+06 
207 -0.02935 8.83427e-05 1723.75 273.234 5.02661 5.02824 -5.65073 -8.31001 1.4583e+06 
208 -0.02925 8.83436e-05 1723.75 273.235 5.02667 5.02838 -5.85786 -8.54122 1.45909e+06 
209 -0.02915 8.83419e-05 1723.75 273.241 5.02669 5.0284 -6.07726 -8.8674 1.46019e+06 
210 -0.02905 8.83434e-05 1723.75 273.241 5.02678 5.02849 -6.10183 -8.95527 1.46072e+06 
211 -0.02895 8.8343e-05 1723.75 273.25 5.02691 5.02875 -6.45197 -9.43284 1.46225e+06 
212 -0.02885 8.83433e-05 1723.75 273.256 5.02705 5.02896 -6.80111 -9.86107 1.46377e+06 
213 -0.02875 8.83439e-05 1723.75 273.256 5.02709 5.02905 -6.78331 -9.99642 1.4641e+06 
214 -0.02865 8.83428e-05 1723.75 273.262 5.02713 5.02913 -7.09701 -10.3599 1.46544e+06 
215 -0.02855 8.83438e-05 1723.75 273.269 5.02732 5.02939 -7.31856 -10.7572 1.46677e+06 
216 -0.02845 8.83429e-05 1723.74 273.274 5.02735 5.02951 -7.63832 -11.1527 1.46827e+06 
217 -0.02835 8.83433e-05 1723.75 273.279 5.02748 5.02967 -7.87369 -11.5144 1.46947e+06 
218 -0.02825 8.83432e-05 1723.74 273.287 5.02761 5.0299 -8.12816 -11.8835 1.47085e+06 
219 -0.02815 8.83439e-05 1723.74 273.292 5.02775 5.03011 -8.3855 -12.1551 1.47209e+06 
220 -0.02805 8.83438e-05 1723.74 273.295 5.02779 5.03024 -8.56376 -12.5224 1.47318e+06 
221 -0.02795 8.83432e-05 1723.74 273.304 5.02792 5.03044 -8.94801 -13.0128 1.47514e+06 
222 -0.02785 8.83438e-05 1723.74 273.306 5.02799 5.03057 -9.2079 -13.4017 1.47656e+06 
223 -0.02775 8.83446e-05 1723.74 273.317 5.02825 5.03094 -9.57414 -13.89 1.4782e+06 
224 -0.02765 8.83435e-05 1723.73 273.324 5.02832 5.03112 -9.97215 -14.51 1.48038e+06 
234 -0.02665 8.83449e-05 1723.71 273.404 5.02987 5.03377 -13.683 -19.899 1.49958e+06 
226 -0.02745 8.83439e-05 1723.73 273.336 5.02855 5.03144 -10.5629 -15.339 1.48349e+06 
227 -0.02735 8.8344e-05 1723.73 273.344 5.02871 5.03171 -10.8935 -15.7578 1.48509e+06 
228 -0.02725 8.83446e-05 1723.73 273.355 5.02895 5.03209 -11.4217 -16.4576 1.48766e+06 
229 -0.02715 8.83444e-05 1723.73 273.362 5.02905 5.03229 -11.7587 -16.9906 1.48939e+06 
230 -0.02705 8.83446e-05 1723.73 273.372 5.02926 5.03257 -12.1724 -17.5148 1.49145e+06 
231 -0.02695 8.83439e-05 1723.72 273.373 5.02923 5.03266 -12.2635 -17.7215 1.49235e+06 
232 -0.02685 8.83447e-05 1723.72 273.381 5.02943 5.03293 -12.6811 -18.4196 1.49476e+06 
233 -0.02675 8.83447e-05 1723.72 273.392 5.02962 5.03328 -13.1425 -19.0623 1.49698e+06 
235 -0.02655 8.83454e-05 1723.72 273.408 5.02996 5.03402 -13.9639 -20.3924 1.50139e+06 
236 -0.02645 8.83449e-05 1723.72 273.418 5.03012 5.03421 -14.2928 -20.8229 1.50326e+06 
237 -0.02635 8.83452e-05 1723.71 273.428 5.03033 5.03455 -14.863 -21.7145 1.506e+06 
238 -0.02625 8.83449e-05 1723.71 273.439 5.0305 5.0348 -15.2736 -22.3885 1.50855e+06 
239 -0.02615 8.83458e-05 1723.71 273.444 5.03065 5.03508 -15.545 -22.7916 1.50998e+06 
240 -0.02605 8.83453e-05 1723.71 273.457 5.03085 5.03537 -16.1747 -23.7008 1.5134e+06 
241 -0.02595 8.83459e-05 1723.7 273.472 5.03116 5.03605 -16.8923 -24.7115 1.51679e+06 
242 -0.02585 8.83462e-05 1723.7 273.482 5.03138 5.03628 -17.276 -25.3778 1.51898e+06 
243 -0.02575 8.83465e-05 1723.7 273.493 5.0316 5.03664 -17.8115 -26.1088 1.52181e+06 
244 -0.02565 8.83463e-05 1723.7 273.507 5.03184 5.03702 -18.3622 -26.9578 1.52442e+06 
245 -0.02555 8.83453e-05 1723.69 273.518 5.03198 5.03737 -19.0539 -27.922 1.52812e+06 
246 -0.02545 8.83467e-05 1723.69 273.535 5.03237 5.03799 -19.7552 -28.9646 1.53168e+06 
247 -0.02535 8.83468e-05 1723.68 273.544 5.03254 5.03829 -20.1583 -29.6747 1.53395e+06 
248 -0.02525 8.83463e-05 1723.68 273.56 5.03281 5.03878 -20.9765 -30.8119 1.53791e+06 
249 -0.02515 8.83464e-05 1723.68 273.574 5.03309 5.03923 -21.4474 -31.5417 1.54074e+06 
250 -0.02505 8.83471e-05 1723.68 273.59 5.0334 5.03984 -22.3547 -32.866 1.54508e+06 
267 -0.02335 8.83517e-05 1723.59 273.97 5.04067 5.05245 -39.8563 -58.5841 1.63427e+06 
257 -0.02435 8.83484e-05 1723.64 273.725 5.03597 5.04436 -28.5378 -41.8863 1.57654e+06 
258 -0.02425 8.8349e-05 1723.64 273.745 5.03638 5.04496 -29.4157 -43.1871 1.58101e+06 
259 -0.02415 8.83487e-05 1723.64 273.76 5.03663 5.04554 -30.2768 -44.514 1.58552e+06 
260 -0.02405 8.83491e-05 1723.63 273.78 5.03703 5.04619 -31.1348 -45.768 1.59034e+06 
261 -0.02395 8.8349e-05 1723.63 273.8 5.03738 5.0467 -32.0106 -47.0888 1.59487e+06 
262 -0.02385 8.83501e-05 1723.62 273.836 5.0381 5.04808 -33.5776 -49.4237 1.60273e+06 
263 -0.02375 8.835e-05 1723.61 273.861 5.03855 5.04884 -34.7504 -51.242 1.60831e+06 
264 -0.02365 8.83504e-05 1723.61 273.888 5.03908 5.04976 -36.1341 -53.227 1.6154e+06 
265 -0.02355 8.83504e-05 1723.6 273.909 5.03946 5.05039 -37.0296 -54.5864 1.62033e+06 
266 -0.02345 8.83511e-05 1723.6 273.932 5.03993 5.05115 -38.1441 -56.1836 1.6264e+06 
268 -0.02325 8.83515e-05 1723.59 273.997 5.04115 5.05327 -41.1127 -60.4957 1.64096e+06 
269 -0.02315 8.8352e-05 1723.58 274.024 5.04168 5.05414 -42.4192 -62.4683 1.648e+06 
270 -0.02305 8.83532e-05 1723.57 274.061 5.04243 5.05545 -44.2094 -64.9872 1.65639e+06 
271 -0.02295 8.83522e-05 1723.57 274.083 5.04278 5.05607 -45.093 -66.6298 1.66204e+06 
272 -0.02285 8.83535e-05 1723.56 274.11 5.04335 5.057 -46.4451 -68.6319 1.66899e+06 
273 -0.02275 8.8353e-05 1723.55 274.153 5.04409 5.05825 -48.3646 -71.2258 1.67848e+06 
274 -0.02265 8.83541e-05 1723.55 274.196 5.04496 5.05949 -50.2646 -73.8311 1.68788e+06 
275 -0.02255 8.83541e-05 1723.54 274.228 5.04554 5.06056 -51.8997 -76.2438 1.69639e+06 
251 -0.02495 8.83471e-05 1723.67 273.615 5.03386 5.04052 -23.4199 -34.228 1.54994e+06 
252 -0.02485 8.83475e-05 1723.67 273.63 5.03416 5.04101 -24.2676 -35.467 1.55446e+06 
253 -0.02475 8.83478e-05 1723.66 273.648 5.03451 5.04163 -24.9015 -36.5072 1.558e+06 
254 -0.02465 8.83475e-05 1723.66 273.661 5.03473 5.04217 -25.5505 -37.572 1.56164e+06 
255 -0.02455 8.83482e-05 1723.66 273.678 5.03509 5.04276 -26.3573 -38.7397 1.56578e+06 
256 -0.02445 8.83485e-05 1723.65 273.699 5.0355 5.04357 -27.5225 -40.5082 1.57137e+06 
300 -0.02005 8.83709e-05 1723.21 275.727 5.07408 5.10999 -121.278 -178.917 2.05129e+06 
289 -0.02115 8.83616e-05 1723.4 274.885 5.05806 5.08242 -82.4982 -121.972 1.85461e+06 
290 -0.02105 8.83619e-05 1723.38 274.94 5.05909 5.08403 -84.8938 -125.551 1.86749e+06 
291 -0.02095 8.83635e-05 1723.37 275.009 5.06046 5.0864 -88.1323 -130.153 1.88346e+06 
292 -0.02085 8.83628e-05 1723.35 275.083 5.06178 5.08874 -91.4878 -135.118 1.90003e+06 
293 -0.02075 8.8365e-05 1723.34 275.148 5.06311 5.09094 -94.6439 -139.799 1.91644e+06 
294 -0.02065 8.83659e-05 1723.32 275.224 5.06454 5.09345 -98.0914 -144.942 1.93417e+06 
295 -0.02055 8.83664e-05 1723.3 275.311 5.06618 5.0962 -102.055 -150.445 1.95349e+06 
296 -0.02045 8.83667e-05 1723.29 275.375 5.06738 5.09835 -105.153 -155.247 1.9702e+06 
297 -0.02035 8.83682e-05 1723.27 275.457 5.06898 5.10095 -109.01 -160.718 1.98962e+06 
298 -0.02025 8.83694e-05 1723.25 275.548 5.07071 5.10401 -113.056 -166.763 2.00993e+06 
299 -0.02015 8.83695e-05 1723.23 275.635 5.07232 5.10702 -117.168 -172.871 2.03048e+06 
276 -0.02245 8.83546e-05 1723.53 274.275 5.04644 5.06216 -53.9904 -79.4449 1.70717e+06 
277 -0.02235 8.83558e-05 1723.52 274.304 5.04704 5.06324 -55.3916 -81.7184 1.71487e+06 
278 -0.02225 8.83553e-05 1723.51 274.335 5.04759 5.06426 -56.8938 -84.0645 1.7232e+06 
279 -0.02215 8.83558e-05 1723.51 274.375 5.04835 5.06561 -58.657 -86.7871 1.73254e+06 
280 -0.02205 8.83556e-05 1723.49 274.424 5.04924 5.06721 -61.0255 -90.2668 1.74433e+06 
281 -0.02195 8.83576e-05 1723.48 274.465 5.05011 5.06872 -62.7965 -93.0942 1.75395e+06 
282 -0.02185 8.83572e-05 1723.47 274.518 5.05106 5.07045 -65.4114 -96.7863 1.76661e+06 
283 -0.02175 8.8358e-05 1723.46 274.562 5.05191 5.07191 -67.3423 -99.7485 1.77683e+06 
284 -0.02165 8.83591e-05 1723.46 274.616 5.05296 5.0736 -69.7699 -103.159 1.78921e+06 
285 -0.02155 8.83584e-05 1723.44 274.664 5.05382 5.07504 -72.1859 -106.615 1.80137e+06 
286 -0.02145 8.83607e-05 1723.43 274.72 5.05497 5.07704 -74.6344 -110.307 1.81421e+06 
287 -0.02135 8.83589e-05 1723.42 274.768 5.05575 5.07848 -76.9592 -113.851 1.82637e+06 
288 -0.02125 8.83609e-05 1723.41 274.826 5.05693 5.08037 -79.6258 -117.787 1.84024e+06 
301 -0.01995 8.83734e-05 1723.19 275.809 5.07574 5.11302 -125.305 -185.136 2.07242e+06 
321 -0.01795 8.84017e-05 1722.6 278.507 5.12703 5.20289 -250.222 -371.137 2.70684e+06 
322 -0.01785 8.84043e-05 1722.56 278.705 5.13083 5.2096 -259.299 -384.555 2.75154e+06 
323 -0.01775 8.8407e-05 1722.52 278.885 5.1343 5.21553 -267.778 -397.384 2.79685e+06 
324 -0.01765 8.84093e-05 1722.48 279.091 5.13823 5.22221 -277.194 -411.275 2.84427e+06 
325 -0.01755 8.84108e-05 1722.42 279.309 5.14234 5.22955 -287.359 -426.445 2.89568e+06 
302 -0.01985 8.83724e-05 1723.17 275.902 5.0774 5.11591 -129.478 -191.361 2.09352e+06 
303 -0.01975 8.83747e-05 1723.15 276.008 5.07949 5.11959 -134.511 -198.692 2.11886e+06 
304 -0.01965 8.83757e-05 1723.13 276.096 5.08115 5.12239 -138.419 -204.755 2.14009e+06 
305 -0.01955 8.83767e-05 1723.11 276.193 5.08301 5.12587 -143.098 -212.069 2.16406e+06 
306 -0.01945 8.83772e-05 1723.09 276.295 5.0849 5.12898 -147.74 -218.854 2.18844e+06 
307 -0.01935 8.83796e-05 1723.06 276.407 5.08711 5.13276 -152.927 -226.5 2.21463e+06 
308 -0.01925 8.83808e-05 1723.04 276.522 5.08929 5.13659 -158.258 -234.389 2.24222e+06 
309 -0.01915 8.83818e-05 1723.01 276.656 5.09182 5.14108 -164.465 -243.457 2.27258e+06 
310 -0.01905 8.83832e-05 1722.98 276.774 5.09406 5.14498 -170.011 -251.906 2.30148e+06 
311 -0.01895 8.83855e-05 1722.95 276.91 5.0967 5.14979 -176.34 -261.338 2.33306e+06 
312 -0.01885 8.83855e-05 1722.92 277.031 5.09893 5.15332 -181.763 -269.247 2.36146e+06 
313 -0.01875 8.83879e-05 1722.9 277.171 5.10164 5.15823 -188.279 -279.109 2.39452e+06 
314 -0.01865 8.83904e-05 1722.86 277.324 5.10461 5.16362 -195.518 -290.049 2.4311e+06 
315 -0.01855 8.83908e-05 1722.83 277.476 5.10742 5.16831 -202.433 -299.931 2.46521e+06 
316 -0.01845 8.83926e-05 1722.8 277.624 5.11026 5.17338 -209.269 -310.391 2.50044e+06 
317 -0.01835 8.83946e-05 1722.76 277.779 5.11322 5.1787 -216.617 -321.406 2.53809e+06 
318 -0.01825 8.83966e-05 1722.72 277.971 5.11688 5.18494 -225.252 -333.836 2.58044e+06 
319 -0.01815 8.8399e-05 1722.68 278.136 5.12006 5.19049 -233.143 -345.601 2.62034e+06 
320 -0.01805 8.84005e-05 1722.64 278.307 5.12329 5.19648 -241.001 -357.883 2.66124e+06 
334 -0.01665 8.84377e-05 1721.91 281.662 5.18724 5.30822 -396.418 -588.32 3.44601e+06 
326 -0.01745 8.8415e-05 1722.38 279.54 5.14683 5.23755 -298.163 -442.582 2.94994e+06 
327 -0.01735 8.84163e-05 1722.32 279.793 5.15156 5.24588 -309.733 -459.641 3.00713e+06 
328 -0.01725 8.84203e-05 1722.27 280.047 5.15648 5.25428 -321.658 -476.751 3.0668e+06 
329 -0.01715 8.84219e-05 1722.21 280.276 5.16079 5.26196 -332.151 -492.689 3.12066e+06 
330 -0.01705 8.84255e-05 1722.16 280.541 5.16586 5.27038 -344.441 -510.234 3.18288e+06 
331 -0.01695 8.84284e-05 1722.1 280.818 5.17114 5.27968 -357.145 -528.966 3.24541e+06 
332 -0.01685 8.84313e-05 1722.04 281.073 5.17601 5.28861 -369.172 -547.83 3.30869e+06 
333 -0.01675 8.84351e-05 1721.97 281.376 5.18181 5.29854 -383.022 -567.887 3.3772e+06 
335 -0.01655 8.84419e-05 1721.83 282.003 5.19376 5.3197 -412.144 -611.35 3.52355e+06 
336 -0.01645 8.84454e-05 1721.77 282.312 5.19966 5.32997 -426.543 -632.604 3.59676e+06 
337 -0.01635 8.84485e-05 1721.69 282.665 5.20634 5.34123 -442.75 -655.886 3.67778e+06 
338 -0.01625 8.84531e-05 1721.61 283.009 5.21295 5.35341 -458.729 -680.758 3.7588e+06 
339 -0.01615 8.84573e-05 1721.54 283.353 5.21952 5.3648 -474.61 -704.466 3.83981e+06 