ITEM: TIMESTEP
10000
ITEM: NUMBER OF CELLS
800
ITEM: BOX BOUNDS os pp pp
-0.05 0.03
-0.001 0.001
-0.001 0.001
ITEM: CELLS id f_1[1] f_1[2] f_1[3] f_1[4] f_1[5] f_1[6] f_1[7] f_1[8] f_1[9] 
1 -0.04995 8.83402e-05 1723.8 273.101 5.02403 5.02241 -0.039207 0.0514115 1.42643e+06 
2 -0.04985 8.83401e-05 1723.8 273.101 5.02402 5.02239 -0.0218888 0.0772632 1.42646e+06 
3 -0.04975 8.83415e-05 1723.8 273.101 5.02409 5.02247 -0.0670999 0.0379444 1.42651e+06 
4 -0.04965 8.83412e-05 1723.8 273.104 5.02413 5.02253 -0.0716557 0.00690331 1.42659e+06 
5 -0.04955 8.83409e-05 1723.8 273.104 5.02412 5.02265 -0.0980157 -0.0527443 1.42672e+06 
6 -0.04945 8.83408e-05 1723.79 273.102 5.02407 5.02259 -0.0967563 -0.0482783 1.42669e+06 
7 -0.04935 8.83406e-05 1723.8 273.106 5.02413 5.02271 -0.126256 -0.11355 1.42684e+06 
8 -0.04925 8.83409e-05 1723.8 273.104 5.02411 5.0226 -0.127339 -0.126597 1.42678e+06 
9 -0.04915 8.83406e-05 1723.79 273.105 5.02411 5.02265 -0.109491 -0.127113 1.42687e+06 
10 -0.04905 8.83412e-05 1723.8 273.105 5.02414 5.02278 -0.114472 -0.143471 1.42693e+06 
11 -0.04895 8.83407e-05 1723.8 273.102 5.02407 5.02274 -0.163578 -0.185688 1.42697e+06 
12 -0.04885 8.83407e-05 1723.79 273.105 5.02412 5.0228 -0.127892 -0.132276 1.427e+06 
13 -0.04875 8.8341e-05 1723.8 273.104 5.02413 5.02285 -0.161368 -0.191864 1.42708e+06 
14 -0.04865 8.83412e-05 1723.8 273.105 5.02414 5.02294 -0.17683 -0.25162 1.42721e+06 
15 -0.04855 8.83412e-05 1723.79 273.106 5.02416 5.02294 -0.20739 -0.275556 1.42724e+06 
16 -0.04845 8.83407e-05 1723.79 273.107 5.02415 5.02293 -0.175107 -0.225817 1.42723e+06 
17 -0.04835 8.83413e-05 1723.79 273.106 5.02417 5.02301 -0.192014 -0.295073 1.42732e+06 
18 -0.04825 8.83403e-05 1723.79 273.102 5.02405 5.02296 -0.211335 -0.316592 1.42727e+06 
19 -0.04815 8.83405e-05 1723.79 273.107 5.02416 5.02306 -0.198752 -0.318558 1.4274e+06 
20 -0.04805 8.83422e-05 1723.8 273.106 5.02423 5.02324 -0.220953 -0.363554 1.42745e+06 
21 -0.04795 8.83407e-05 1723.79 273.104 5.0241 5.02313 -0.221625 -0.35573 1.42747e+06 
22 -0.04785 8.8341e-05 1723.79 273.106 5.02415 5.02319 -0.207469 -0.344693 1.42744e+06 
23 -0.04775 8.83405e-05 1723.79 273.106 5.02412 5.02317 -0.242906 -0.381621 1.42755e+06 
24 -0.04765 8.83415e-05 1723.79 273.106 5.02419 5.02329 -0.237492 -0.407861 1.42756e+06 
25 -0.04755 8.83414e-05 1723.79 273.105 5.02416 5.02323 -0.250181 -0.40393 1.42758e+06 
34 -0.04665 8.83406e-05 1723.79 273.109 5.02419 5.02346 -0.266654 -0.427301 1.42786e+06 
33 -0.04675 8.83425e-05 1723.79 273.108 5.02429 5.02356 -0.279783 -0.466727 1.42786e+06 
35 -0.04655 8.83414e-05 1723.79 273.108 5.02421 5.0235 -0.285554 -0.475848 1.42791e+06 
36 -0.04645 8.83414e-05 1723.79 273.108 5.02422 5.02341 -0.268714 -0.466637 1.42787e+06 
37 -0.04635 8.83407e-05 1723.79 273.107 5.02417 5.0234 -0.288294 -0.496947 1.4279e+06 
38 -0.04625 8.8341e-05 1723.79 273.108 5.02419 5.02347 -0.284629 -0.516286 1.4279e+06 
39 -0.04615 8.8341e-05 1723.79 273.108 5.02421 5.0236 -0.268366 -0.46913 1.42797e+06 
40 -0.04605 8.8342e-05 1723.79 273.106 5.02422 5.02357 -0.259873 -0.486196 1.42795e+06 
41 -0.04595 8.83405e-05 1723.79 273.107 5.02416 5.02363 -0.275855 -0.497153 1.42797e+06 
42 -0.04585 8.83417e-05 1723.79 273.11 5.02426 5.0238 -0.285671 -0.542793 1.42807e+06 
43 -0.04575 8.83413e-05 1723.79 273.106 5.02417 5.02373 -0.263841 -0.5079 1.42805e+06 
44 -0.04565 8.83417e-05 1723.79 273.109 5.02426 5.02377 -0.294615 -0.53473 1.42813e+06 
45 -0.04555 8.8341e-05 1723.79 273.108 5.0242 5.02368 -0.275783 -0.517146 1.42815e+06 
46 -0.04545 8.83417e-05 1723.79 273.109 5.02426 5.02376 -0.299285 -0.54717 1.42815e+06 
47 -0.04535 8.83411e-05 1723.79 273.108 5.0242 5.02368 -0.293463 -0.553245 1.42814e+06 
48 -0.04525 8.8341e-05 1723.79 273.109 5.02421 5.02371 -0.300906 -0.55171 1.42815e+06 
49 -0.04515 8.83412e-05 1723.79 273.111 5.02426 5.02378 -0.281397 -0.508351 1.42819e+06 
50 -0.04505 8.83416e-05 1723.79 273.108 5.02424 5.0237 -0.303632 -0.480321 1.42815e+06 
26 -0.04745 8.83407e-05 1723.79 273.105 5.02412 5.02329 -0.238662 -0.400221 1.42762e+06 
27 -0.04735 8.83411e-05 1723.79 273.108 5.0242 5.02331 -0.248054 -0.380512 1.42768e+06 
28 -0.04725 8.83413e-05 1723.79 273.106 5.02418 5.02334 -0.258639 -0.414898 1.42771e+06 
29 -0.04715 8.83409e-05 1723.79 273.106 5.02415 5.02335 -0.263908 -0.41484 1.42772e+06 
30 -0.04705 8.83412e-05 1723.79 273.107 5.02419 5.02342 -0.239309 -0.431726 1.42771e+06 
31 -0.04695 8.8341e-05 1723.79 273.106 5.02416 5.02338 -0.254886 -0.44144 1.42776e+06 
32 -0.04685 8.83404e-05 1723.79 273.105 5.02411 5.02341 -0.263338 -0.482493 1.42779e+06 
67 -0.04335 8.83412e-05 1723.79 273.112 5.02427 5.02353 -0.360209 -0.542415 1.4283e+06 
65 -0.04355 8.83417e-05 1723.79 273.11 5.02427 5.02355 -0.353402 -0.559125 1.42832e+06 
66 -0.04345 8.83413e-05 1723.79 273.11 5.02424 5.02352 -0.347924 -0.545497 1.4283e+06 
68 -0.04325 8.8341e-05 1723.79 273.11 5.02423 5.02351 -0.379537 -0.591193 1.42833e+06 
69 -0.04315 8.83416e-05 1723.79 273.112 5.0243 5.02361 -0.390006 -0.578376 1.42842e+06 
70 -0.04305 8.8341e-05 1723.79 273.11 5.02424 5.0236 -0.376455 -0.575061 1.42837e+06 
71 -0.04295 8.83421e-05 1723.79 273.11 5.0243 5.02371 -0.388116 -0.588872 1.42844e+06 
72 -0.04285 8.83406e-05 1723.79 273.113 5.02427 5.0236 -0.379527 -0.582819 1.42844e+06 
73 -0.04275 8.83419e-05 1723.79 273.109 5.02426 5.02362 -0.376087 -0.607437 1.42844e+06 
74 -0.04265 8.83405e-05 1723.79 273.112 5.02424 5.02362 -0.351475 -0.562051 1.42845e+06 
75 -0.04255 8.83421e-05 1723.79 273.11 5.0243 5.02365 -0.388195 -0.623755 1.42848e+06 
51 -0.04495 8.83417e-05 1723.79 273.111 5.02428 5.02376 -0.281571 -0.480213 1.42818e+06 
52 -0.04485 8.83407e-05 1723.79 273.11 5.02421 5.02372 -0.296597 -0.466483 1.42815e+06 
53 -0.04475 8.83413e-05 1723.79 273.11 5.02424 5.02365 -0.298106 -0.494504 1.42819e+06 
54 -0.04465 8.83412e-05 1723.79 273.111 5.02425 5.02365 -0.311471 -0.488755 1.42818e+06 
55 -0.04455 8.83417e-05 1723.79 273.11 5.02428 5.02369 -0.318059 -0.510574 1.42824e+06 
56 -0.04445 8.8341e-05 1723.79 273.108 5.0242 5.02368 -0.311779 -0.487893 1.42825e+06 
57 -0.04435 8.83418e-05 1723.79 273.111 5.0243 5.02378 -0.344504 -0.544911 1.42838e+06 
58 -0.04425 8.83414e-05 1723.79 273.111 5.02428 5.02378 -0.316751 -0.492301 1.4283e+06 
59 -0.04415 8.83408e-05 1723.79 273.11 5.02422 5.02363 -0.318985 -0.49578 1.42825e+06 
60 -0.04405 8.83418e-05 1723.79 273.112 5.02431 5.02375 -0.324044 -0.502654 1.42829e+06 
61 -0.04395 8.83416e-05 1723.79 273.11 5.02427 5.0237 -0.325811 -0.502765 1.4283e+06 
62 -0.04385 8.83406e-05 1723.79 273.109 5.02419 5.0235 -0.343648 -0.512223 1.42823e+06 
63 -0.04375 8.83416e-05 1723.79 273.111 5.02428 5.02355 -0.322695 -0.499668 1.42829e+06 
64 -0.04365 8.83414e-05 1723.79 273.111 5.02427 5.02354 -0.341462 -0.527363 1.42829e+06 
100 -0.04005 8.83414e-05 1723.79 273.113 5.02431 5.02396 -0.498351 -0.729143 1.42918e+06 
97 -0.04035 8.8341e-05 1723.79 273.115 5.02433 5.02386 -0.520528 -0.727899 1.42926e+06 
98 -0.04025 8.83415e-05 1723.79 273.112 5.02431 5.0239 -0.494054 -0.720285 1.42914e+06 
99 -0.04015 8.83412e-05 1723.79 273.114 5.02431 5.02392 -0.494717 -0.721112 1.4292e+06 
76 -0.04245 8.83411e-05 1723.79 273.109 5.02423 5.02353 -0.409846 -0.622047 1.4285e+06 
77 -0.04235 8.83409e-05 1723.79 273.114 5.0243 5.02368 -0.424277 -0.626252 1.42861e+06 
78 -0.04225 8.83417e-05 1723.79 273.111 5.02428 5.02368 -0.407274 -0.613882 1.42851e+06 
79 -0.04215 8.83413e-05 1723.79 273.111 5.02426 5.02365 -0.391148 -0.598779 1.42854e+06 
80 -0.04205 8.83411e-05 1723.79 273.113 5.02429 5.02361 -0.416899 -0.628752 1.42854e+06 
81 -0.04195 8.83416e-05 1723.79 273.111 5.02428 5.02366 -0.425462 -0.643607 1.42865e+06 
82 -0.04185 8.83409e-05 1723.79 273.111 5.02425 5.02366 -0.46 -0.662772 1.42874e+06 
83 -0.04175 8.83409e-05 1723.79 273.113 5.02427 5.02372 -0.416614 -0.629034 1.42874e+06 
84 -0.04165 8.83416e-05 1723.79 273.113 5.02431 5.02371 -0.433109 -0.646065 1.42867e+06 
85 -0.04155 8.83414e-05 1723.79 273.112 5.0243 5.02368 -0.463332 -0.655592 1.42881e+06 
86 -0.04145 8.83415e-05 1723.79 273.112 5.0243 5.02373 -0.442927 -0.635308 1.42886e+06 
87 -0.04135 8.83407e-05 1723.79 273.113 5.02427 5.02372 -0.466737 -0.658443 1.42889e+06 
88 -0.04125 8.83416e-05 1723.79 273.113 5.02431 5.02375 -0.451529 -0.629804 1.42879e+06 
89 -0.04115 8.8341e-05 1723.79 273.115 5.02432 5.02372 -0.457581 -0.64658 1.42884e+06 
90 -0.04105 8.83413e-05 1723.79 273.114 5.02432 5.02373 -0.4883 -0.671291 1.42889e+06 
91 -0.04095 8.83412e-05 1723.79 273.113 5.0243 5.02372 -0.510157 -0.70814 1.42894e+06 
92 -0.04085 8.83405e-05 1723.79 273.113 5.02427 5.02367 -0.483582 -0.687009 1.42891e+06 
93 -0.04075 8.83416e-05 1723.79 273.114 5.02434 5.0238 -0.507024 -0.743303 1.42907e+06 
94 -0.04065 8.83416e-05 1723.79 273.114 5.02435 5.02387 -0.524656 -0.774971 1.42909e+06 
95 -0.04055 8.83409e-05 1723.79 273.112 5.02426 5.02385 -0.521556 -0.743044 1.42913e+06 
96 -0.04045 8.83408e-05 1723.79 273.114 5.0243 5.02385 -0.516596 -0.764771 1.42914e+06 
101 -0.03995 8.8341e-05 1723.79 273.114 5.02431 5.02396 -0.530862 -0.781436 1.42933e+06 
102 -0.03985 8.83412e-05 1723.79 273.114 5.02433 5.024 -0.529441 -0.805115 1.42932e+06 
103 -0.03975 8.83407e-05 1723.79 273.114 5.02429 5.02392 -0.506399 -0.772223 1.4293e+06 
104 -0.03965 8.83416e-05 1723.79 273.112 5.02429 5.02397 -0.488473 -0.72876 1.42925e+06 
105 -0.03955 8.83412e-05 1723.79 273.114 5.02432 5.02398 -0.539706 -0.822112 1.42946e+06 
106 -0.03945 8.83412e-05 1723.78 273.115 5.02434 5.02404 -0.495788 -0.75562 1.42937e+06 
107 -0.03935 8.83412e-05 1723.79 273.114 5.02432 5.02398 -0.53092 -0.810742 1.42941e+06 
108 -0.03925 8.83414e-05 1723.79 273.113 5.02432 5.02397 -0.542391 -0.831066 1.42943e+06 
109 -0.03915 8.83411e-05 1723.79 273.114 5.0243 5.0238 -0.517094 -0.807946 1.42937e+06 
110 -0.03905 8.8342e-05 1723.79 273.112 5.02432 5.02389 -0.504636 -0.765721 1.42937e+06 
111 -0.03895 8.83407e-05 1723.79 273.115 5.0243 5.02382 -0.527284 -0.790924 1.42947e+06 
112 -0.03885 8.83409e-05 1723.79 273.113 5.02429 5.02378 -0.496957 -0.759033 1.42943e+06 
113 -0.03875 8.83415e-05 1723.79 273.114 5.02434 5.02381 -0.535287 -0.806302 1.42965e+06 
114 -0.03865 8.83413e-05 1723.79 273.115 5.02433 5.02375 -0.550036 -0.783738 1.42973e+06 
115 -0.03855 8.83416e-05 1723.79 273.114 5.02435 5.02386 -0.552835 -0.821525 1.42985e+06 
116 -0.03845 8.83412e-05 1723.79 273.114 5.02432 5.02371 -0.575438 -0.839059 1.4298e+06 
117 -0.03835 8.83421e-05 1723.79 273.117 5.02441 5.02381 -0.618941 -0.867804 1.43003e+06 
118 -0.03825 8.83408e-05 1723.79 273.116 5.02434 5.0237 -0.642218 -0.900789 1.43012e+06 
119 -0.03815 8.83415e-05 1723.79 273.116 5.02437 5.02375 -0.595203 -0.863452 1.43005e+06 
120 -0.03805 8.83406e-05 1723.79 273.115 5.02429 5.02364 -0.61943 -0.863828 1.43004e+06 
121 -0.03795 8.83414e-05 1723.79 273.115 5.02435 5.02371 -0.603635 -0.840969 1.43011e+06 
122 -0.03785 8.83414e-05 1723.79 273.115 5.02435 5.02376 -0.627308 -0.865716 1.43019e+06 
123 -0.03775 8.83408e-05 1723.79 273.115 5.0243 5.02361 -0.602033 -0.873725 1.43017e+06 
124 -0.03765 8.83411e-05 1723.79 273.117 5.02436 5.02374 -0.631758 -0.889296 1.43014e+06 
125 -0.03755 8.83411e-05 1723.79 273.117 5.02437 5.02383 -0.645858 -0.883037 1.43035e+06 
134 -0.03665 8.8341e-05 1723.79 273.12 5.02441 5.02402 -0.749098 -1.09427 1.43097e+06 
129 -0.03715 8.83414e-05 1723.79 273.117 5.02438 5.02385 -0.689816 -0.974979 1.43062e+06 
130 -0.03705 8.83409e-05 1723.79 273.117 5.02435 5.02386 -0.661838 -0.959169 1.43061e+06 
131 -0.03695 8.83418e-05 1723.79 273.117 5.02441 5.024 -0.691124 -0.981624 1.4307e+06 
132 -0.03685 8.83407e-05 1723.79 273.119 5.02438 5.02401 -0.75003 -1.09459 1.43089e+06 
133 -0.03675 8.83416e-05 1723.79 273.118 5.02441 5.02402 -0.736544 -1.04236 1.43083e+06 
135 -0.03655 8.83411e-05 1723.79 273.119 5.0244 5.02392 -0.767589 -1.08275 1.43102e+06 
136 -0.03645 8.83419e-05 1723.79 273.122 5.0245 5.02411 -0.793411 -1.13026 1.43122e+06 
137 -0.03635 8.83408e-05 1723.78 273.119 5.02438 5.02404 -0.767428 -1.0787 1.43116e+06 
138 -0.03625 8.83416e-05 1723.79 273.12 5.02445 5.02405 -0.785865 -1.12741 1.43121e+06 
139 -0.03615 8.83414e-05 1723.78 273.12 5.02443 5.02407 -0.774375 -1.11304 1.43129e+06 
140 -0.03605 8.83405e-05 1723.79 273.121 5.02441 5.02417 -0.819989 -1.18586 1.43145e+06 
141 -0.03595 8.83416e-05 1723.78 273.123 5.0245 5.02422 -0.793197 -1.1465 1.43146e+06 
142 -0.03585 8.83421e-05 1723.79 273.121 5.0245 5.02423 -0.849477 -1.20737 1.43171e+06 
143 -0.03575 8.83414e-05 1723.78 273.122 5.02448 5.02428 -0.849916 -1.23106 1.43177e+06 
144 -0.03565 8.83414e-05 1723.78 273.123 5.0245 5.02429 -0.870618 -1.26979 1.4319e+06 
145 -0.03555 8.83419e-05 1723.78 273.121 5.0245 5.02433 -0.915441 -1.30325 1.43211e+06 
146 -0.03545 8.8341e-05 1723.78 273.126 5.02453 5.02436 -0.907266 -1.31533 1.43221e+06 
147 -0.03535 8.83421e-05 1723.78 273.121 5.02449 5.02445 -0.926108 -1.36923 1.43234e+06 
148 -0.03525 8.83417e-05 1723.79 273.127 5.02459 5.02451 -0.977643 -1.39148 1.43263e+06 
149 -0.03515 8.83416e-05 1723.78 273.123 5.0245 5.02441 -0.986637 -1.406 1.43259e+06 
150 -0.03505 8.83415e-05 1723.78 273.126 5.02455 5.02449 -0.982919 -1.38415 1.43269e+06 
126 -0.03745 8.83415e-05 1723.79 273.117 5.02439 5.0239 -0.66478 -0.924683 1.43045e+06 
127 -0.03735 8.83409e-05 1723.79 273.116 5.02434 5.02379 -0.670832 -0.92628 1.43047e+06 
128 -0.03725 8.83415e-05 1723.79 273.117 5.0244 5.02388 -0.668613 -0.946402 1.43055e+06 
167 -0.03335 8.83417e-05 1723.78 273.141 5.02484 5.02503 -1.68201 -2.45941 1.43618e+06 
161 -0.03395 8.83411e-05 1723.78 273.134 5.02467 5.02485 -1.42552 -2.11105 1.43484e+06 
162 -0.03385 8.83421e-05 1723.78 273.133 5.02472 5.02494 -1.45756 -2.1366 1.43503e+06 
163 -0.03375 8.83419e-05 1723.78 273.136 5.02477 5.02491 -1.4622 -2.12422 1.43512e+06 
164 -0.03365 8.83416e-05 1723.78 273.136 5.02474 5.02492 -1.53218 -2.27072 1.43545e+06 
165 -0.03355 8.83413e-05 1723.78 273.139 5.02479 5.02497 -1.64753 -2.39587 1.43587e+06 
166 -0.03345 8.83425e-05 1723.78 273.138 5.02483 5.02503 -1.70964 -2.46466 1.43609e+06 
168 -0.03325 8.83421e-05 1723.78 273.14 5.02485 5.02503 -1.79482 -2.59849 1.43665e+06 
169 -0.03315 8.8342e-05 1723.78 273.143 5.02488 5.02515 -1.85019 -2.67583 1.43689e+06 
170 -0.03305 8.83418e-05 1723.78 273.146 5.02493 5.02519 -1.90782 -2.78888 1.43728e+06 
171 -0.03295 8.83419e-05 1723.78 273.145 5.02493 5.02525 -1.89081 -2.78664 1.43729e+06 
172 -0.03285 8.83418e-05 1723.78 273.145 5.02492 5.02524 -1.96231 -2.87894 1.43765e+06 
173 -0.03275 8.83422e-05 1723.78 273.147 5.02499 5.02542 -2.0146 -2.97445 1.43798e+06 
174 -0.03265 8.83421e-05 1723.78 273.148 5.025 5.0254 -2.08993 -3.04926 1.43824e+06 
175 -0.03255 8.83416e-05 1723.78 273.15 5.025 5.02543 -2.15514 -3.09596 1.43864e+06 
151 -0.03495 8.83424e-05 1723.78 273.126 5.02461 5.02459 -1.06597 -1.48014 1.43307e+06 
152 -0.03485 8.83412e-05 1723.78 273.126 5.02453 5.0246 -1.07685 -1.51683 1.43318e+06 
153 -0.03475 8.83408e-05 1723.78 273.128 5.02456 5.02463 -1.07731 -1.52318 1.43326e+06 
154 -0.03465 8.83415e-05 1723.78 273.127 5.02458 5.02467 -1.20124 -1.71675 1.43361e+06 
155 -0.03455 8.83421e-05 1723.78 273.131 5.02467 5.02467 -1.19588 -1.71694 1.43368e+06 
156 -0.03445 8.83411e-05 1723.78 273.129 5.02459 5.02457 -1.23795 -1.77792 1.43389e+06 
157 -0.03435 8.83422e-05 1723.78 273.132 5.02471 5.02477 -1.29316 -1.87284 1.43412e+06 
158 -0.03425 8.83416e-05 1723.78 273.13 5.02464 5.02473 -1.28878 -1.83283 1.43418e+06 
159 -0.03415 8.83414e-05 1723.78 273.134 5.02469 5.02474 -1.29471 -1.89335 1.43429e+06 
160 -0.03405 8.83416e-05 1723.78 273.132 5.02467 5.02488 -1.39776 -2.01773 1.43469e+06 
200 -0.03005 8.83418e-05 1723.76 273.196 5.02586 5.02686 -4.45825 -6.52589 1.45102e+06 
193 -0.03075 8.83419e-05 1723.77 273.178 5.02554 5.02618 -3.572 -5.28972 1.44616e+06 
194 -0.03065 8.83421e-05 1723.77 273.178 5.02555 5.02625 -3.66805 -5.43245 1.44674e+06 
195 -0.03055 8.83422e-05 1723.77 273.187 5.02571 5.02646 -3.82165 -5.65316 1.44771e+06 
196 -0.03045 8.83422e-05 1723.77 273.187 5.02571 5.02648 -4.03551 -5.8747 1.44848e+06 
197 -0.03035 8.83422e-05 1723.77 273.191 5.02579 5.02652 -4.0416 -5.92416 1.44882e+06 
198 -0.03025 8.83422e-05 1723.77 273.195 5.02585 5.02669 -4.185 -6.14499 1.44956e+06 
199 -0.03015 8.83428e-05 1723.77 273.193 5.02587 5.02676 -4.30607 -6.32475 1.45024e+06 
176 -0.03245 8.83425e-05 1723.78 273.15 5.02505 5.02551 -2.2067 -3.21643 1.43898e+06 
177 -0.03235 8.83421e-05 1723.78 273.153 5.02508 5.0255 -2.3197 -3.31824 1.43943e+06 
178 -0.03225 8.83422e-05 1723.78 273.158 5.02517 5.02561 -2.47821 -3.54511 1.4402e+06 
179 -0.03215 8.83422e-05 1723.77 273.157 5.02516 5.02561 -2.51381 -3.60482 1.44042e+06 
180 -0.03205 8.83419e-05 1723.78 273.158 5.02518 5.02563 -2.60991 -3.75921 1.4409e+06 
181 -0.03195 8.83419e-05 1723.77 273.159 5.02519 5.02565 -2.61471 -3.83127 1.44106e+06 
182 -0.03185 8.83421e-05 1723.77 273.157 5.02516 5.0256 -2.59503 -3.8044 1.44104e+06 
183 -0.03175 8.83424e-05 1723.78 273.158 5.0252 5.02563 -2.65615 -3.96235 1.44145e+06 
184 -0.03165 8.83426e-05 1723.77 273.162 5.02527 5.0257 -2.7249 -4.01821 1.44178e+06 
185 -0.03155 8.83422e-05 1723.78 273.163 5.02528 5.02575 -2.86513 -4.25216 1.44229e+06 
186 -0.03145 8.83418e-05 1723.77 273.164 5.02528 5.02573 -2.9272 -4.30378 1.44266e+06 
187 -0.03135 8.83427e-05 1723.77 273.168 5.02539 5.02592 -3.03269 -4.50528 1.44333e+06 
188 -0.03125 8.83422e-05 1723.78 273.171 5.02541 5.02612 -3.14967 -4.65245 1.44387e+06 
189 -0.03115 8.83424e-05 1723.77 273.172 5.02546 5.026 -3.21332 -4.76567 1.44433e+06 
190 -0.03105 8.8342e-05 1723.77 273.175 5.02548 5.02612 -3.35607 -4.91668 1.445e+06 
191 -0.03095 8.83418e-05 1723.77 273.177 5.02551 5.02615 -3.43193 -5.06142 1.44528e+06 
192 -0.03085 8.83435e-05 1723.77 273.177 5.02561 5.02625 -3.52916 -5.23846 1.44591e+06 
201 -0.02995 8.8343e-05 1723.77 273.201 5.02602 5.02691 -4.57923 -6.69816 1.45156e+06 
225 -0.02755 8.83438e-05 1723.75 273.304 5.02796 5.03044 -9.37863 -13.8732 1.47712e+06 
202 -0.02985 8.83419e-05 1723.77 273.203 5.02599 5.02703 -4.74686 -6.98196 1.45244e+06 
203 -0.02975 8.83424e-05 1723.76 273.206 5.02608 5.02716 -4.8172 -7.11673 1.45301e+06 
204 -0.02965 8.83425e-05 1723.76 273.207 5.02611 5.02729 -4.95955 -7.29817 1.45377e+06 
205 -0.02955 8.83424e-05 1723.76 273.213 5.02621 5.02735 -5.1821 -7.57264 1.45478e+06 
206 -0.02945 8.83424e-05 1723.76 273.216 5.02627 5.02756 -5.38178 -7.84766 1.45577e+06 
207 -0.02935 8.83423e-05 1723.76 273.221 5.02634 5.02767 -5.50661 -8.07449 1.45647e+06 
208 -0.02925 8.83434e-05 1723.76 273.218 5.02637 5.02772 -5.54295 -8.21982 1.45681e+06 
209 -0.02915 8.83418e-05 1723.76 273.221 5.02633 5.02761 -5.58554 -8.27635 1.45734e+06 
210 -0.02905 8.83431e-05 1723.76 273.228 5.02652 5.02793 -5.9326 -8.72533 1.45893e+06 
211 -0.02895 8.83423e-05 1723.76 273.236 5.02663 5.02811 -6.19333 -9.1223 1.46016e+06 
212 -0.02885 8.83424e-05 1723.76 273.235 5.0266 5.02803 -6.23382 -9.18749 1.46062e+06 
213 -0.02875 8.83431e-05 1723.76 273.234 5.02664 5.02818 -6.23273 -9.29774 1.46098e+06 
214 -0.02865 8.83425e-05 1723.76 273.241 5.02672 5.02832 -6.56429 -9.72571 1.46239e+06 
215 -0.02855 8.8343e-05 1723.75 273.247 5.02686 5.02846 -6.79267 -10.0611 1.46364e+06 
216 -0.02845 8.83426e-05 1723.76 273.253 5.02696 5.02865 -7.09121 -10.4504 1.46505e+06 
217 -0.02835 8.83426e-05 1723.75 273.26 5.02708 5.02891 -7.35897 -10.7899 1.4664e+06 
218 -0.02825 8.83428e-05 1723.75 273.263 5.02715 5.029 -7.52756 -11.0624 1.46732e+06 
219 -0.02815 8.83433e-05 1723.75 273.266 5.02723 5.0291 -7.68844 -11.3428 1.46831e+06 
220 -0.02805 8.8343e-05 1723.75 273.272 5.02733 5.02932 -7.90514 -11.6895 1.46943e+06 
221 -0.02795 8.83429e-05 1723.75 273.279 5.02745 5.02954 -8.22099 -12.1368 1.47105e+06 
222 -0.02785 8.83434e-05 1723.75 273.281 5.02751 5.02974 -8.45769 -12.5011 1.47226e+06 
223 -0.02775 8.8343e-05 1723.75 273.289 5.02763 5.02982 -8.75046 -12.9982 1.47376e+06 
224 -0.02765 8.83437e-05 1723.75 273.298 5.02784 5.03017 -9.05662 -13.3738 1.47547e+06 
234 -0.02665 8.83447e-05 1723.73 273.378 5.02937 5.03292 -12.8467 -18.9437 1.49484e+06 
226 -0.02745 8.83427e-05 1723.74 273.313 5.02807 5.03063 -9.85205 -14.4843 1.47929e+06 
227 -0.02735 8.83438e-05 1723.74 273.319 5.02824 5.03087 -10.1993 -15.0537 1.48107e+06 
228 -0.02725 8.83444e-05 1723.74 273.326 5.02839 5.03108 -10.3962 -15.3679 1.48245e+06 
229 -0.02715 8.83438e-05 1723.74 273.333 5.0285 5.03129 -10.6889 -15.8654 1.48407e+06 
230 -0.02705 8.83442e-05 1723.73 273.346 5.02875 5.03172 -11.3231 -16.6831 1.48677e+06 
231 -0.02695 8.8344e-05 1723.73 273.351 5.02883 5.03192 -11.6957 -17.2229 1.48879e+06 
232 -0.02685 8.83434e-05 1723.73 273.36 5.02896 5.0322 -12.0584 -17.7941 1.49072e+06 
233 -0.02675 8.83447e-05 1723.73 273.368 5.02919 5.03249 -12.362 -18.2375 1.49249e+06 
235 -0.02655 8.83446e-05 1723.72 273.391 5.02961 5.03335 -13.4964 -19.7869 1.49796e+06 
236 -0.02645 8.8344e-05 1723.72 273.4 5.02973 5.0336 -13.8703 -20.4373 1.50005e+06 
237 -0.02635 8.83444e-05 1723.72 273.407 5.02989 5.03382 -14.1444 -20.9127 1.50183e+06 
238 -0.02625 8.83449e-05 1723.72 273.416 5.03008 5.0341 -14.6904 -21.6289 1.50454e+06 
239 -0.02615 8.83445e-05 1723.72 273.423 5.03018 5.03438 -15.1177 -22.3104 1.50663e+06 
240 -0.02605 8.83458e-05 1723.72 273.435 5.03048 5.03476 -15.4983 -22.9084 1.50892e+06 
241 -0.02595 8.83448e-05 1723.71 273.448 5.03067 5.03518 -16.1324 -23.7928 1.51191e+06 
242 -0.02585 8.83454e-05 1723.71 273.456 5.03084 5.03533 -16.5697 -24.4045 1.51443e+06 
243 -0.02575 8.83447e-05 1723.71 273.466 5.03099 5.03561 -16.9526 -25.1103 1.51665e+06 
244 -0.02565 8.8346e-05 1723.71 273.483 5.03137 5.03617 -17.7768 -26.1308 1.52051e+06 
245 -0.02555 8.83457e-05 1723.71 273.496 5.0316 5.03661 -18.4038 -27.0773 1.5239e+06 
246 -0.02545 8.83456e-05 1723.7 273.498 5.03163 5.03671 -18.4992 -27.3614 1.52516e+06 
247 -0.02535 8.83461e-05 1723.7 273.509 5.03187 5.03718 -19.1533 -28.3772 1.52846e+06 
248 -0.02525 8.83458e-05 1723.69 273.527 5.03218 5.03762 -19.8038 -29.32 1.53182e+06 
249 -0.02515 8.83461e-05 1723.69 273.541 5.03245 5.03815 -20.5971 -30.3709 1.53578e+06 
250 -0.02505 8.83464e-05 1723.69 273.561 5.03283 5.03874 -21.4104 -31.4534 1.53972e+06 
267 -0.02335 8.83507e-05 1723.61 273.916 5.03961 5.05032 -38.0647 -56.2073 1.62579e+06 
257 -0.02435 8.83475e-05 1723.66 273.67 5.03491 5.04238 -26.694 -39.4037 1.56784e+06 
258 -0.02425 8.83486e-05 1723.66 273.698 5.03547 5.04333 -27.8285 -41.0928 1.57317e+06 
259 -0.02415 8.83477e-05 1723.65 273.72 5.03583 5.04396 -28.9769 -42.764 1.57902e+06 
260 -0.02405 8.83479e-05 1723.65 273.739 5.0362 5.04459 -29.9129 -44.0964 1.58384e+06 
261 -0.02395 8.83494e-05 1723.64 273.768 5.03681 5.04548 -31.19 -45.8995 1.59008e+06 
262 -0.02385 8.83488e-05 1723.64 273.79 5.03718 5.04621 -32.1266 -47.4282 1.59487e+06 
263 -0.02375 8.83492e-05 1723.64 273.812 5.03761 5.04689 -33.2707 -49.1327 1.60119e+06 
264 -0.02365 8.83498e-05 1723.63 273.826 5.0379 5.04736 -33.9007 -50.146 1.60491e+06 
265 -0.02355 8.8349e-05 1723.62 273.858 5.03845 5.04826 -35.4149 -52.2402 1.61221e+06 
266 -0.02345 8.83504e-05 1723.62 273.889 5.03909 5.04938 -36.7665 -54.2773 1.61896e+06 
268 -0.02325 8.8351e-05 1723.61 273.938 5.04004 5.051 -39.1018 -57.781 1.63127e+06 
269 -0.02315 8.83497e-05 1723.6 273.975 5.04064 5.05215 -40.7483 -60.2085 1.63939e+06 
270 -0.02305 8.83525e-05 1723.6 273.998 5.04123 5.05312 -42.0874 -62.1666 1.64653e+06 
271 -0.02295 8.83516e-05 1723.59 274.034 5.04183 5.05417 -43.4725 -64.1483 1.6533e+06 
272 -0.02285 8.83516e-05 1723.58 274.065 5.04241 5.05521 -45.1396 -66.5966 1.66204e+06 
273 -0.02275 8.83527e-05 1723.58 274.095 5.04303 5.05609 -46.4368 -68.4202 1.66894e+06 
274 -0.02265 8.83522e-05 1723.56 274.128 5.0436 5.05735 -48.0289 -71.0147 1.67756e+06 
275 -0.02255 8.83533e-05 1723.56 274.154 5.04414 5.05824 -49.265 -72.9544 1.68433e+06 
251 -0.02495 8.83458e-05 1723.69 273.572 5.033 5.03904 -21.9535 -32.3564 1.5431e+06 
252 -0.02485 8.8347e-05 1723.68 273.582 5.03326 5.03964 -22.5397 -33.3556 1.54613e+06 
253 -0.02475 8.8346e-05 1723.68 273.596 5.03346 5.04009 -23.1827 -34.4292 1.54971e+06 
254 -0.02465 8.83471e-05 1723.68 273.617 5.0339 5.04062 -23.9979 -35.4706 1.55401e+06 
255 -0.02455 8.83477e-05 1723.67 273.628 5.03414 5.04116 -24.661 -36.5384 1.55761e+06 
256 -0.02445 8.83471e-05 1723.67 273.652 5.03456 5.0417 -25.7292 -38.0327 1.5628e+06 
300 -0.02005 8.8369e-05 1723.25 275.581 5.07129 5.10571 -116.009 -171.671 2.0262e+06 
289 -0.02115 8.83591e-05 1723.42 274.791 5.0562 5.0793 -78.9484 -117.287 1.83725e+06 
290 -0.02105 8.83608e-05 1723.41 274.852 5.05741 5.0814 -81.9042 -121.573 1.85261e+06 
291 -0.02095 8.83617e-05 1723.4 274.905 5.05843 5.0832 -84.3743 -125.372 1.86553e+06 
292 -0.02085 8.83613e-05 1723.39 274.963 5.05948 5.08496 -87.1529 -129.433 1.88014e+06 
293 -0.02075 8.83631e-05 1723.37 275.043 5.06106 5.08764 -90.8356 -134.604 1.89787e+06 
294 -0.02065 8.83639e-05 1723.35 275.109 5.06232 5.08992 -93.9323 -139.272 1.91395e+06 
295 -0.02055 8.83641e-05 1723.34 275.176 5.06357 5.09215 -97.0775 -144.065 1.93067e+06 
296 -0.02045 8.83646e-05 1723.32 275.25 5.06495 5.09475 -100.586 -149.365 1.9487e+06 
297 -0.02035 8.83665e-05 1723.3 275.334 5.06661 5.09757 -104.475 -154.873 1.96786e+06 
298 -0.02025 8.83669e-05 1723.29 275.403 5.0679 5.09979 -107.728 -159.653 1.98487e+06 
299 -0.02015 8.83674e-05 1723.27 275.487 5.06947 5.10256 -111.523 -165.307 2.00399e+06 
276 -0.02245 8.83536e-05 1723.55 274.191 5.04484 5.05955 -50.9402 -75.5489 1.693e+06 
277 -0.02235 8.83535e-05 1723.54 274.233 5.0456 5.06091 -52.9445 -78.3301 1.7027e+06 
278 -0.02225 8.8354e-05 1723.54 274.267 5.04626 5.06203 -54.548 -80.7639 1.7117e+06 
279 -0.02215 8.8355e-05 1723.53 274.308 5.04707 5.06331 -56.3578 -83.239 1.72049e+06 
280 -0.02205 8.83548e-05 1723.52 274.341 5.04767 5.06451 -58.0701 -86.0758 1.73049e+06 
281 -0.02195 8.83556e-05 1723.51 274.393 5.04866 5.06615 -60.4376 -89.457 1.74192e+06 
282 -0.02185 8.8356e-05 1723.5 274.433 5.04943 5.06746 -62.3089 -92.3524 1.75204e+06 
283 -0.02175 8.83564e-05 1723.49 274.481 5.05033 5.06903 -64.5094 -95.5451 1.76296e+06 
284 -0.02165 8.83564e-05 1723.48 274.527 5.05118 5.07048 -66.8086 -98.9333 1.77477e+06 
285 -0.02155 8.83578e-05 1723.47 274.573 5.0521 5.07218 -68.7993 -102.282 1.78562e+06 
286 -0.02145 8.83576e-05 1723.46 274.624 5.05304 5.07395 -71.2423 -105.89 1.79795e+06 
287 -0.02135 8.83588e-05 1723.45 274.676 5.05406 5.07568 -73.6911 -109.623 1.81051e+06 
288 -0.02125 8.83594e-05 1723.43 274.735 5.05519 5.07766 -76.493 -113.862 1.82483e+06 
301 -0.01995 8.83697e-05 1723.23 275.653 5.07266 5.10819 -119.478 -177.043 2.04461e+06 
321 -0.01795 8.83983e-05 1722.67 278.255 5.1222 5.19477 -241.037 -357.615 2.66414e+06 
322 -0.01785 8.84004e-05 1722.62 278.456 5.12603 5.20172 -250.41 -371.548 2.7102e+06 
323 -0.01775 8.84032e-05 1722.58 278.653 5.12982 5.20806 -259.475 -384.76 2.75657e+06 
324 -0.01765 8.84058e-05 1722.54 278.856 5.1337 5.21498 -269.12 -399.261 2.80564e+06 
325 -0.01755 8.8407e-05 1722.49 279.051 5.13736 5.22124 -278.237 -412.671 2.85233e+06 
302 -0.01985 8.837e-05 1723.21 275.748 5.07443 5.11132 -123.859 -183.721 2.06694e+06 
303 -0.01975 8.83718e-05 1723.2 275.83 5.07603 5.11407 -127.773 -189.586 2.08779e+06 
304 -0.01965 8.83717e-05 1723.17 275.93 5.07788 5.11711 -132.249 -195.887 2.10994e+06 
305 -0.01955 8.83739e-05 1723.15 276.029 5.07981 5.12072 -137.098 -203.479 2.13518e+06 
306 -0.01945 8.83757e-05 1723.13 276.128 5.08175 5.12404 -141.58 -210.108 2.158e+06 
307 -0.01935 8.83753e-05 1723.11 276.228 5.08357 5.12733 -146.325 -217.44 2.18325e+06 
308 -0.01925 8.83782e-05 1723.08 276.349 5.08595 5.13144 -151.908 -225.476 2.21049e+06 
309 -0.01915 8.83782e-05 1723.06 276.454 5.08789 5.13477 -156.928 -232.844 2.23699e+06 
310 -0.01905 8.83795e-05 1723.03 276.596 5.09058 5.13958 -163.513 -242.562 2.26928e+06 
311 -0.01895 8.83815e-05 1723.01 276.71 5.0928 5.14324 -168.825 -250.289 2.29689e+06 
312 -0.01885 8.8382e-05 1722.98 276.83 5.09503 5.1474 -174.545 -259.152 2.32698e+06 
313 -0.01875 8.83845e-05 1722.95 276.974 5.09782 5.15233 -181.159 -268.952 2.35957e+06 
314 -0.01865 8.83859e-05 1722.91 277.126 5.1007 5.15718 -188.253 -278.949 2.39501e+06 
315 -0.01855 8.83874e-05 1722.88 277.273 5.10349 5.1619 -195.134 -288.967 2.4298e+06 
316 -0.01845 8.83891e-05 1722.85 277.429 5.10646 5.16727 -202.473 -300.014 2.46654e+06 
317 -0.01835 8.83912e-05 1722.81 277.596 5.10966 5.17291 -210.288 -311.668 2.50623e+06 
318 -0.01825 8.83932e-05 1722.78 277.747 5.11255 5.17805 -217.259 -322.398 2.54251e+06 
319 -0.01815 8.83945e-05 1722.74 277.903 5.1155 5.1833 -224.45 -333.328 2.57932e+06 
320 -0.01805 8.83966e-05 1722.7 278.084 5.11895 5.18939 -233.163 -346.328 2.62349e+06 
334 -0.01665 8.84325e-05 1721.99 281.344 5.18106 5.29804 -385.251 -572.113 3.39463e+06 
326 -0.01745 8.84101e-05 1722.45 279.259 5.14137 5.22847 -287.931 -427.766 2.90267e+06 
327 -0.01735 8.84119e-05 1722.4 279.492 5.14576 5.23607 -298.731 -443.675 2.95739e+06 
328 -0.01725 8.84155e-05 1722.35 279.739 5.15052 5.24423 -310.34 -460.488 3.01492e+06 
329 -0.01715 8.84173e-05 1722.29 279.979 5.15504 5.25232 -321.547 -477.262 3.07216e+06 
330 -0.01705 8.84204e-05 1722.24 280.222 5.15971 5.26057 -333.003 -494.639 3.13065e+06 
331 -0.01695 8.84236e-05 1722.18 280.479 5.16462 5.26909 -344.934 -512.345 3.19165e+06 
332 -0.01685 8.84265e-05 1722.12 280.785 5.17042 5.27933 -359.195 -533.066 3.26214e+06 
333 -0.01675 8.84304e-05 1722.06 281.067 5.17585 5.2889 -372.343 -552.768 3.32812e+06 
335 -0.01655 8.8436e-05 1721.93 281.646 5.18683 5.30832 -399.298 -593.188 3.46552e+06 
336 -0.01645 8.84401e-05 1721.86 281.944 5.19256 5.31805 -413.296 -613.633 3.53702e+06 
337 -0.01635 8.84428e-05 1721.79 282.267 5.19868 5.32877 -428.314 -636.107 3.6131e+06 
338 -0.01625 8.84467e-05 1721.72 282.613 5.20528 5.34068 -444.487 -660.582 3.69494e+06 
339 -0.01615 8.8451e-05 1721.64 282.972 5.21214 5.35278 -461.211 -685.336 3.7778e+06 
340 -0.01605 8.84548e-05 1721.56 283.314 5.21867 5.36397 -477.26 -709.233 3.86075e+06 