TITLE = "DSMC"
VARIABLES = "ID" "X" "rho" "v1" "Ttrans" "p" "p1" "q1" "mv1v1v1" "mvvv1v1"
ZONE T="Ma=7.2_inv", I=800, J=1, K=1, F=POINT
800 -0.02995 0.000334034 -586.126 4660.74 324.202 324.194 3.2891 -1.25367 1573270000.0
799 -0.02985 0.000334041 -586.12 4660.8 324.213 324.196 5.05249 -9.78399 1573300000.0
798 -0.02975 0.00033404 -586.117 4660.85 324.215 324.194 9.64836 -12.4977 1573280000.0
797 -0.02965 0.000334043 -586.118 4660.81 324.215 324.197 5.22165 -18.6657 1573280000.0
796 -0.02955 0.000334032 -586.136 4660.62 324.192 324.195 -2.68336 -6.66189 1573260000.0
795 -0.02945 0.000334046 -586.106 4660.47 324.195 324.196 -17.2748 -28.9194 1573240000.0
794 -0.02935 0.00033404 -586.124 4660.74 324.208 324.196 0.231191 -9.72786 1573280000.0
793 -0.02925 0.000334048 -586.102 4660.69 324.212 324.199 -4.19187 -11.988 1573270000.0
792 -0.02915 0.000334028 -586.144 4660.73 324.195 324.191 6.96054 16.3981 1573230000.0
791 -0.02905 0.000334035 -586.128 4660.81 324.208 324.195 9.23862 12.0327 1573260000.0
790 -0.02895 0.000334042 -586.118 4660.73 324.209 324.194 -1.69013 -1.59265 1573240000.0
789 -0.02885 0.00033404 -586.12 4660.68 324.203 324.199 -2.48876 6.46345 1573260000.0
788 -0.02875 0.000334033 -586.136 4660.57 324.189 324.195 -4.20487 18.5445 1573220000.0
787 -0.02865 0.00033404 -586.118 4660.71 324.206 324.195 -0.847768 7.88444 1573210000.0
786 -0.02855 0.000334042 -586.118 4660.72 324.208 324.199 0.868721 15.3425 1573240000.0
785 -0.02845 0.000334042 -586.125 4660.77 324.212 324.2 1.94376 17.2118 1573250000.0
784 -0.02835 0.000334042 -586.115 4660.7 324.207 324.198 1.43887 19.8724 1573230000.0
783 -0.02825 0.000334052 -586.099 4660.86 324.227 324.201 4.9475 7.95459 1573250000.0
782 -0.02815 0.000334049 -586.108 4660.69 324.213 324.199 -6.89317 9.69948 1573210000.0
781 -0.02805 0.000334039 -586.121 4660.66 324.201 324.195 -1.32657 21.4246 1573210000.0
780 -0.02795 0.000334037 -586.13 4660.74 324.204 324.199 0.10493 17.3853 1573230000.0
779 -0.02785 0.000334031 -586.131 4660.85 324.207 324.195 16.3267 37.0022 1573220000.0
778 -0.02775 0.00033404 -586.127 4660.89 324.218 324.198 7.78115 23.7198 1573240000.0
777 -0.02765 0.00033404 -586.12 4660.77 324.21 324.197 9.00371 28.5523 1573240000.0
776 -0.02755 0.000334064 -586.078 4660.62 324.222 324.202 -15.7887 -9.96435 1573220000.0
775 -0.02745 0.000334073 -586.067 4660.63 324.232 324.21 -22.175 -33.0574 1573280000.0
774 -0.02735 0.000334076 -586.055 4660.56 324.23 324.209 -28.4797 -31.7613 1573260000.0
773 -0.02725 0.000334065 -586.078 4660.68 324.228 324.206 -14.5717 -21.2419 1573270000.0
772 -0.02715 0.000334071 -586.071 4660.7 324.235 324.208 -18.9288 -33.7296 1573290000.0
771 -0.02705 0.000334074 -586.06 4660.63 324.233 324.207 -20.5795 -34.7104 1573280000.0
770 -0.02695 0.000334065 -586.075 4660.65 324.226 324.209 -22.432 -32.7073 1573300000.0
769 -0.02685 0.000334049 -586.105 4660.67 324.211 324.202 -6.43964 -3.6068 1573250000.0
768 -0.02675 0.000334043 -586.115 4660.59 324.2 324.195 -8.54593 -5.60713 1573230000.0
767 -0.02665 0.000334031 -586.136 4660.68 324.195 324.193 4.24617 17.7796 1573230000.0
766 -0.02655 0.000334041 -586.12 4660.71 324.206 324.198 0.373675 -0.924523 1573270000.0
765 -0.02645 0.000334056 -586.092 4660.57 324.211 324.204 -21.0286 -29.5433 1573280000.0
764 -0.02635 0.000334049 -586.104 4660.86 324.224 324.203 2.84928 -14.6562 1573330000.0
763 -0.02625 0.000334061 -586.081 4660.71 324.226 324.205 -12.3829 -24.4647 1573280000.0
762 -0.02615 0.000334051 -586.099 4660.66 324.213 324.199 -9.96491 -4.85372 1573270000.0
761 -0.02605 0.000334038 -586.124 4660.72 324.204 324.2 -4.14204 10.1923 1573280000.0
760 -0.02595 0.000334036 -586.129 4660.88 324.213 324.194 11.1291 15.3378 1573240000.0
759 -0.02585 0.000334038 -586.124 4660.94 324.219 324.196 13.652 8.7874 1573260000.0
758 -0.02575 0.000334031 -586.135 4661.01 324.218 324.194 23.1373 20.1275 1573260000.0
757 -0.02565 0.000334052 -586.1 4660.74 324.22 324.201 -4.33221 -9.0385 1573250000.0
756 -0.02555 0.000334049 -586.102 4660.96 324.232 324.202 8.66484 1.14725 1573290000.0
755 -0.02545 0.000334059 -586.089 4660.75 324.226 324.206 -10.2532 -20.7729 1573300000.0
754 -0.02535 0.000334052 -586.095 4660.76 324.221 324.2 -4.48727 -5.9367 1573250000.0
753 -0.02525 0.000334055 -586.098 4660.81 324.227 324.204 -2.5806 -7.11553 1573280000.0
752 -0.02515 0.000334052 -586.095 4660.78 324.222 324.201 -6.85964 -8.87093 1573270000.0
751 -0.02505 0.000334034 -586.129 4660.93 324.215 324.194 17.8139 22.3265 1573220000.0
750 -0.02495 0.000334055 -586.096 4661.0 324.24 324.204 3.56978 -10.2049 1573270000.0
749 -0.02485 0.000334051 -586.098 4661.04 324.239 324.198 13.5296 5.12349 1573260000.0
748 -0.02475 0.00033406 -586.081 4660.96 324.242 324.206 -0.714418 -14.9602 1573300000.0
747 -0.02465 0.000334035 -586.132 4661.05 324.224 324.193 18.9411 18.0114 1573280000.0
746 -0.02455 0.000334047 -586.102 4660.92 324.227 324.198 8.08795 -1.83832 1573280000.0
745 -0.02445 0.000334056 -586.095 4660.88 324.233 324.206 -1.44642 -11.3979 1573310000.0
744 -0.02435 0.000334043 -586.113 4660.88 324.22 324.198 3.36815 -7.40838 1573280000.0
743 -0.02425 0.000334053 -586.09 4660.63 324.213 324.199 -12.9528 -14.3995 1573240000.0
742 -0.02415 0.000334043 -586.112 4660.87 324.22 324.2 2.27659 -6.77371 1573310000.0
741 -0.02405 0.000334048 -586.103 4660.75 324.217 324.2 -1.77681 -2.52319 1573290000.0
740 -0.02395 0.000334065 -586.075 4660.69 324.228 324.205 -18.9654 -34.1828 1573310000.0
739 -0.02385 0.000334047 -586.108 4660.82 324.22 324.201 -0.0733278 -3.78259 1573310000.0
738 -0.02375 0.000334047 -586.109 4660.78 324.216 324.2 -1.79028 7.1155 1573300000.0
737 -0.02365 0.000334029 -586.134 4660.8 324.2 324.194 5.57577 17.0219 1573270000.0
736 -0.02355 0.000334033 -586.128 4660.67 324.196 324.189 -3.20346 4.91883 1573210000.0
735 -0.02345 0.000334055 -586.091 4660.75 324.223 324.204 -8.55393 -20.3956 1573270000.0
734 -0.02335 0.000334055 -586.094 4660.74 324.223 324.203 -9.41873 -20.8947 1573260000.0
733 -0.02325 0.000334061 -586.082 4660.69 324.224 324.204 -18.1545 -24.2725 1573270000.0
732 -0.02315 0.000334061 -586.08 4660.62 324.22 324.204 -18.981 -19.9863 1573250000.0
731 -0.02305 0.000334045 -586.115 4660.72 324.211 324.198 -3.31037 -1.38491 1573230000.0
730 -0.02295 0.000334043 -586.115 4660.64 324.203 324.197 -6.00952 4.66391 1573250000.0
729 -0.02285 0.000334057 -586.087 4660.56 324.211 324.203 -25.7948 -27.2143 1573270000.0
728 -0.02275 0.000334064 -586.078 4660.55 324.218 324.201 -20.3254 -28.6074 1573240000.0
727 -0.02265 0.000334071 -586.066 4660.58 324.226 324.207 -27.968 -43.4492 1573280000.0
726 -0.02255 0.000334039 -586.122 4660.6 324.197 324.195 -11.4164 -0.23918 1573220000.0
725 -0.02245 0.000334021 -586.151 4660.55 324.176 324.187 1.6414 26.112 1573190000.0
724 -0.02235 0.00033402 -586.157 4660.67 324.183 324.188 6.83561 20.8611 1573210000.0
723 -0.02225 0.000334033 -586.137 4660.56 324.189 324.192 -6.67208 7.09723 1573210000.0
722 -0.02215 0.000334017 -586.159 4660.55 324.172 324.185 2.84545 29.3981 1573190000.0
721 -0.02205 0.000334026 -586.152 4660.61 324.185 324.19 -0.288887 19.0925 1573230000.0
720 -0.02195 0.000334041 -586.122 4660.61 324.199 324.197 -4.20668 2.93971 1573250000.0
719 -0.02185 0.000334038 -586.124 4660.59 324.195 324.194 -7.95776 3.86126 1573220000.0
718 -0.02175 0.000334035 -586.13 4660.74 324.203 324.192 1.12336 2.44112 1573220000.0
717 -0.02165 0.000334041 -586.126 4660.76 324.21 324.197 1.94891 1.98023 1573250000.0
716 -0.02155 0.000334053 -586.097 4660.64 324.214 324.196 -15.5145 -24.4855 1573220000.0
715 -0.02145 0.00033405 -586.109 4660.78 324.22 324.202 -4.00526 -13.7217 1573280000.0
714 -0.02135 0.000334057 -586.089 4660.94 324.238 324.2 2.15656 -23.749 1573240000.0
713 -0.02125 0.000334054 -586.103 4660.82 324.227 324.199 -1.82749 -24.9458 1573250000.0
712 -0.02115 0.000334057 -586.094 4660.92 324.236 324.2 2.51615 -21.8939 1573240000.0
711 -0.02105 0.000334054 -586.099 4660.82 324.226 324.201 -3.85195 -15.5508 1573230000.0
710 -0.02095 0.000334062 -586.086 4660.81 324.234 324.207 -7.98471 -22.8859 1573260000.0
709 -0.02085 0.000334064 -586.08 4660.88 324.241 324.204 -3.79936 -28.8323 1573250000.0
708 -0.02075 0.000334049 -586.106 4660.75 324.217 324.197 -4.95902 -6.82295 1573200000.0
707 -0.02065 0.000334046 -586.118 4660.91 324.225 324.202 7.95995 -1.80111 1573280000.0
706 -0.02055 0.000334047 -586.106 4660.76 324.216 324.198 -2.54633 4.88459 1573210000.0
705 -0.02045 0.000334045 -586.111 4660.8 324.217 324.2 2.09494 13.363 1573230000.0
704 -0.02035 0.000334047 -586.115 4660.76 324.215 324.199 -2.27022 0.978019 1573230000.0
703 -0.02025 0.000334033 -586.138 4660.87 324.21 324.194 14.1356 30.4387 1573200000.0
702 -0.02015 0.000334037 -586.13 4660.89 324.215 324.194 10.5152 26.2367 1573210000.0
701 -0.02005 0.000334066 -586.074 4660.82 324.238 324.203 -7.61474 -9.52231 1573220000.0
700 -0.01995 0.000334052 -586.107 4661.18 324.25 324.199 19.0674 9.58363 1573240000.0
699 -0.01985 0.000334049 -586.105 4661.08 324.24 324.199 16.5277 5.13866 1573260000.0
698 -0.01975 0.000334031 -586.137 4661.06 324.221 324.192 28.2807 34.2136 1573210000.0
697 -0.01965 0.000334028 -586.139 4661.16 324.226 324.191 36.627 43.1111 1573240000.0
696 -0.01955 0.00033403 -586.151 4661.02 324.217 324.194 24.7741 35.7786 1573240000.0
695 -0.01945 0.000334043 -586.114 4661.02 324.23 324.199 16.1692 30.4442 1573270000.0
694 -0.01935 0.000334055 -586.099 4660.98 324.239 324.199 7.37524 2.83688 1573230000.0
693 -0.01925 0.000334046 -586.115 4660.98 324.23 324.199 15.8345 20.0428 1573270000.0
692 -0.01915 0.000334031 -586.141 4660.99 324.216 324.188 25.6583 38.008 1573210000.0
691 -0.01905 0.000334023 -586.161 4660.96 324.206 324.191 25.7133 34.7474 1573240000.0
690 -0.01895 0.000334065 -586.082 4660.88 324.241 324.204 -5.2192 -26.118 1573270000.0
689 -0.01885 0.000334068 -586.074 4661.0 324.253 324.207 6.78314 -28.8569 1573300000.0
688 -0.01875 0.000334053 -586.102 4661.07 324.243 324.201 15.9412 -7.62105 1573290000.0
687 -0.01865 0.000334044 -586.126 4661.13 324.239 324.199 26.7239 12.4503 1573300000.0
686 -0.01855 0.000334059 -586.088 4660.96 324.241 324.202 6.18344 -12.8753 1573280000.0
685 -0.01845 0.000334056 -586.099 4660.8 324.227 324.203 -2.85638 -5.37173 1573290000.0
684 -0.01835 0.000334057 -586.098 4660.99 324.241 324.202 6.22755 -13.1913 1573290000.0
683 -0.01825 0.000334064 -586.085 4660.96 324.246 324.207 5.14078 -19.6869 1573310000.0
682 -0.01815 0.000334049 -586.108 4661.03 324.237 324.197 13.5861 -2.97085 1573290000.0
681 -0.01805 0.000334058 -586.098 4661.01 324.243 324.204 7.80002 -16.8997 1573320000.0
680 -0.01795 0.000334052 -586.106 4661.02 324.239 324.2 12.8186 -4.98454 1573260000.0
679 -0.01785 0.000334057 -586.098 4661.05 324.246 324.2 8.82215 -8.49431 1573260000.0
678 -0.01775 0.000334053 -586.107 4661.05 324.242 324.202 15.8888 2.64436 1573310000.0
677 -0.01765 0.000334059 -586.092 4661.02 324.246 324.203 9.31881 -2.11805 1573290000.0
676 -0.01755 0.000334053 -586.101 4661.05 324.241 324.199 12.6384 13.6058 1573260000.0
675 -0.01745 0.00033406 -586.096 4661.01 324.246 324.202 5.92001 2.73237 1573260000.0
674 -0.01735 0.000334064 -586.084 4661.03 324.251 324.206 5.10979 -9.45333 1573280000.0
673 -0.01725 0.000334037 -586.131 4661.1 324.229 324.193 25.7605 22.9811 1573240000.0
672 -0.01715 0.000334035 -586.136 4661.03 324.223 324.199 23.5927 28.5539 1573280000.0
671 -0.01705 0.000334046 -586.111 4660.97 324.229 324.199 11.0723 11.6679 1573270000.0
670 -0.01695 0.000334048 -586.112 4660.98 324.232 324.199 12.3019 21.6252 1573250000.0
669 -0.01685 0.000334054 -586.1 4661.03 324.241 324.203 10.9834 5.05899 1573280000.0
668 -0.01675 0.00033403 -586.141 4660.97 324.214 324.195 20.4929 37.902 1573240000.0
667 -0.01665 0.000334023 -586.155 4660.95 324.206 324.192 24.2352 46.6739 1573210000.0
666 -0.01655 0.000334018 -586.16 4660.99 324.204 324.188 30.8377 45.3952 1573190000.0
665 -0.01645 0.000334013 -586.173 4661.07 324.204 324.189 34.0403 44.9449 1573200000.0
664 -0.01635 0.000334003 -586.191 4660.99 324.189 324.187 38.5585 63.1713 1573220000.0
663 -0.01625 0.00033401 -586.174 4661.05 324.2 324.186 38.4112 45.53 1573200000.0
662 -0.01615 0.000334029 -586.141 4660.9 324.208 324.193 18.1809 17.6263 1573200000.0
661 -0.01605 0.000334021 -586.157 4661.14 324.217 324.192 34.7893 24.2407 1573230000.0
660 -0.01595 0.000334003 -586.186 4661.25 324.207 324.185 55.5706 52.1587 1573200000.0
659 -0.01585 0.000333998 -586.196 4661.31 324.206 324.184 59.1584 64.7548 1573200000.0
658 -0.01575 0.000334012 -586.172 4661.19 324.212 324.189 46.226 49.2875 1573200000.0
657 -0.01565 0.000334007 -586.181 4661.03 324.196 324.188 36.4602 51.3107 1573180000.0
656 -0.01555 0.000334009 -586.18 4661.14 324.205 324.186 42.1745 43.7905 1573150000.0
655 -0.01545 0.000334014 -586.165 4661.11 324.208 324.19 37.4584 40.4618 1573180000.0
654 -0.01535 0.000334007 -586.183 4661.1 324.2 324.187 44.1555 52.2978 1573150000.0
653 -0.01525 0.000334021 -586.155 4661.09 324.214 324.193 33.7711 35.9724 1573160000.0
652 -0.01515 0.000334018 -586.164 4661.05 324.208 324.191 34.2392 45.5121 1573140000.0
651 -0.01505 0.000334014 -586.171 4661.01 324.201 324.185 31.2615 44.5381 1573100000.0
650 -0.01495 0.000334008 -586.185 4661.21 324.209 324.188 49.2167 62.4196 1573120000.0
649 -0.01485 0.000334017 -586.165 4661.07 324.208 324.189 29.9046 38.6775 1573110000.0
648 -0.01475 0.000334024 -586.148 4661.04 324.213 324.192 33.0168 39.4663 1573090000.0
647 -0.01465 0.000333995 -586.207 4661.28 324.201 324.181 57.7745 78.6709 1573070000.0
646 -0.01455 0.000334003 -586.193 4661.26 324.207 324.189 53.9083 63.4166 1573090000.0
645 -0.01445 0.000333995 -586.205 4661.13 324.192 324.181 51.0669 69.4896 1573030000.0
644 -0.01435 0.000333995 -586.204 4661.16 324.193 324.184 52.194 69.5645 1573050000.0
643 -0.01425 0.000333983 -586.23 4661.28 324.19 324.177 64.4683 84.2866 1573000000.0
642 -0.01415 0.000333985 -586.223 4661.33 324.195 324.18 66.9594 82.9163 1573020000.0
641 -0.01405 0.000334002 -586.189 4661.39 324.216 324.182 64.6062 62.7728 1572990000.0
640 -0.01395 0.000334012 -586.178 4661.15 324.209 324.191 41.8511 46.2855 1573010000.0
639 -0.01385 0.000333997 -586.201 4661.13 324.193 324.183 51.5325 74.8853 1572960000.0
638 -0.01375 0.000334002 -586.192 4661.18 324.201 324.184 43.7901 51.8249 1572940000.0
637 -0.01365 0.000333988 -586.21 4661.36 324.2 324.179 66.1302 70.3938 1572920000.0
636 -0.01355 0.000333974 -586.243 4661.37 324.187 324.177 76.2136 79.1426 1572920000.0
635 -0.01345 0.000333987 -586.218 4661.21 324.189 324.184 62.6397 63.1212 1572890000.0
634 -0.01335 0.000333964 -586.255 4661.32 324.174 324.172 78.4897 94.2165 1572850000.0
633 -0.01325 0.000333955 -586.274 4661.19 324.157 324.172 77.0674 121.075 1572810000.0
632 -0.01315 0.000333943 -586.303 4661.23 324.148 324.163 86.2041 130.902 1572760000.0
631 -0.01305 0.000333967 -586.255 4661.29 324.175 324.171 73.3481 90.5258 1572750000.0
630 -0.01295 0.000333949 -586.282 4661.46 324.169 324.168 99.6352 120.385 1572740000.0
629 -0.01285 0.000333948 -586.293 4661.36 324.161 324.166 87.8571 114.024 1572690000.0
628 -0.01275 0.000333935 -586.311 4661.34 324.147 324.162 96.4897 134.362 1572660000.0
627 -0.01265 0.000333947 -586.293 4661.42 324.164 324.165 95.8416 114.253 1572630000.0
626 -0.01255 0.000333936 -586.31 4661.49 324.159 324.161 107.076 125.305 1572610000.0
625 -0.01245 0.000333916 -586.347 4661.42 324.134 324.157 115.29 153.921 1572570000.0
624 -0.01235 0.000333907 -586.362 4661.57 324.136 324.152 129.214 162.749 1572550000.0
623 -0.01225 0.000333907 -586.364 4661.52 324.132 324.153 124.365 161.171 1572530000.0
622 -0.01215 0.000333889 -586.391 4661.55 324.117 324.142 138.855 177.982 1572460000.0
621 -0.01205 0.000333891 -586.387 4661.64 324.125 324.145 143.798 173.562 1572470000.0
620 -0.01195 0.000333901 -586.374 4661.81 324.147 324.153 142.674 157.178 1572510000.0
619 -0.01185 0.000333881 -586.407 4661.92 324.136 324.14 163.262 176.859 1572410000.0
618 -0.01175 0.000333866 -586.435 4661.81 324.113 324.137 165.315 189.19 1572360000.0
617 -0.01165 0.000333868 -586.428 4661.72 324.109 324.139 154.826 176.824 1572290000.0
616 -0.01155 0.00033384 -586.483 4661.8 324.087 324.128 178.118 215.89 1572220000.0
615 -0.01145 0.000333837 -586.486 4661.96 324.095 324.126 187.92 213.311 1572160000.0
614 -0.01135 0.000333828 -586.503 4662.0 324.089 324.122 195.995 218.345 1572080000.0
613 -0.01125 0.000333795 -586.556 4662.16 324.069 324.115 223.749 261.168 1572060000.0
612 -0.01115 0.000333784 -586.576 4662.24 324.063 324.108 233.751 262.026 1571980000.0
611 -0.01105 0.000333771 -586.605 4662.28 324.054 324.102 247.014 274.874 1571920000.0
610 -0.01095 0.000333767 -586.607 4662.47 324.062 324.103 260.146 268.919 1571880000.0
609 -0.01085 0.000333747 -586.644 4662.67 324.058 324.096 281.004 285.031 1571790000.0
608 -0.01075 0.000333724 -586.681 4662.71 324.037 324.085 297.522 306.741 1571680000.0
607 -0.01065 0.000333711 -586.709 4662.8 324.032 324.085 312.196 321.934 1571630000.0
606 -0.01055 0.000333688 -586.746 4662.84 324.011 324.075 328.043 343.764 1571530000.0
605 -0.01045 0.000333655 -586.804 4662.92 323.986 324.064 346.668 373.638 1571440000.0
604 -0.01035 0.000333634 -586.835 4662.89 323.963 324.059 360.6 396.143 1571330000.0
603 -0.01025 0.000333618 -586.869 4663.01 323.956 324.049 374.999 404.902 1571190000.0
602 -0.01015 0.000333591 -586.915 4663.09 323.935 324.039 395.002 421.947 1571080000.0
601 -0.01005 0.000333554 -586.987 4663.19 323.907 324.029 421.547 464.33 1570990000.0
600 -0.00995 0.000333522 -587.037 4663.36 323.886 324.015 453.024 504.387 1570830000.0
599 -0.00985 0.000333491 -587.093 4663.5 323.866 324.007 477.023 528.52 1570750000.0
598 -0.00975 0.000333473 -587.127 4663.63 323.858 324.0 495.927 540.17 1570630000.0
597 -0.00965 0.00033344 -587.179 4663.72 323.832 323.986 519.027 553.157 1570470000.0
596 -0.00955 0.000333389 -587.276 4663.97 323.8 323.971 563.495 591.369 1570340000.0
595 -0.00945 0.000333342 -587.352 4664.11 323.764 323.95 596.511 629.505 1570130000.0
594 -0.00935 0.000333301 -587.429 4664.25 323.734 323.942 629.226 661.137 1570030000.0
593 -0.00925 0.000333253 -587.51 4664.5 323.705 323.921 670.99 695.602 1569820000.0
592 -0.00915 0.000333219 -587.572 4664.57 323.677 323.911 694.09 710.689 1569660000.0
591 -0.00905 0.000333176 -587.651 4664.68 323.642 323.895 727.02 743.263 1569470000.0
590 -0.00895 0.000333133 -587.722 4664.77 323.607 323.88 752.793 760.26 1569240000.0
589 -0.00885 0.000333065 -587.839 4664.91 323.551 323.857 803.143 819.702 1569030000.0
588 -0.00875 0.000333002 -587.951 4665.3 323.517 323.835 863.975 868.7 1568830000.0
587 -0.00865 0.000332943 -588.059 4665.57 323.477 323.813 906.719 890.405 1568590000.0
586 -0.00855 0.000332864 -588.194 4665.67 323.408 323.788 964.022 969.36 1568330000.0
585 -0.00845 0.000332813 -588.285 4665.7 323.361 323.767 995.585 987.904 1568040000.0
584 -0.00835 0.000332738 -588.416 4665.97 323.307 323.746 1048.02 1038.73 1567800000.0
583 -0.00825 0.000332658 -588.559 4666.15 323.241 323.714 1106.52 1091.17 1567470000.0
582 -0.00815 0.000332591 -588.68 4666.3 323.186 323.691 1156.41 1121.13 1567190000.0
581 -0.00805 0.000332494 -588.847 4666.65 323.116 323.657 1229.07 1177.33 1566850000.0
580 -0.00795 0.00033238 -589.048 4666.89 323.022 323.616 1308.44 1272.19 1566470000.0
579 -0.00785 0.000332275 -589.235 4667.19 322.941 323.579 1386.5 1338.33 1566080000.0
578 -0.00775 0.000332166 -589.437 4667.4 322.849 323.541 1463.23 1410.88 1565700000.0
577 -0.00765 0.000332059 -589.616 4667.77 322.771 323.502 1540.31 1459.48 1565280000.0
576 -0.00755 0.000331947 -589.819 4668.24 322.694 323.46 1635.46 1524.7 1564820000.0
575 -0.00745 0.000331814 -590.058 4668.45 322.58 323.417 1727.68 1606.96 1564390000.0
574 -0.00735 0.000331673 -590.306 4668.56 322.451 323.365 1810.01 1683.02 1563840000.0
573 -0.00725 0.000331516 -590.585 4668.85 322.317 323.306 1918.13 1781.56 1563270000.0
572 -0.00715 0.00033136 -590.866 4669.09 322.183 323.253 2018.22 1855.75 1562720000.0
571 -0.00705 0.000331186 -591.17 4669.59 322.048 323.188 2150.35 1960.84 1562100000.0
570 -0.00695 0.000330997 -591.507 4669.8 321.879 323.126 2275.42 2070.6 1561490000.0
569 -0.00685 0.000330799 -591.868 4670.16 321.711 323.052 2405.88 2175.95 1560810000.0
568 -0.00675 0.000330599 -592.226 4670.48 321.539 322.981 2544.46 2282.05 1560100000.0
567 -0.00665 0.000330358 -592.654 4671.11 321.348 322.893 2715.73 2428.48 1559320000.0
566 -0.00655 0.000330135 -593.059 4671.44 321.152 322.814 2864.12 2531.74 1558530000.0
565 -0.00645 0.000329867 -593.536 4671.9 320.924 322.717 3049.41 2678.83 1557640000.0
564 -0.00635 0.0003296 -594.02 4672.33 320.693 322.62 3225.25 2796.99 1556730000.0
563 -0.00625 0.000329306 -594.545 4672.87 320.445 322.515 3429.09 2968.93 1555790000.0
562 -0.00615 0.000328991 -595.124 4673.28 320.166 322.401 3635.57 3133.45 1554730000.0
561 -0.00605 0.000328655 -595.723 4673.89 319.881 322.278 3866.85 3308.64 1553640000.0
560 -0.00595 0.000328302 -596.368 4674.49 319.578 322.153 4105.86 3489.02 1552490000.0
559 -0.00585 0.000327929 -597.048 4674.83 319.239 322.017 4342.97 3675.11 1551240000.0
558 -0.00575 0.000327543 -597.755 4675.45 318.905 321.876 4605.5 3850.51 1549940000.0
557 -0.00565 0.000327115 -598.523 4676.01 318.527 321.718 4887.19 4058.82 1548560000.0
556 -0.00555 0.000326658 -599.368 4676.55 318.118 321.551 5187.79 4281.2 1547100000.0
555 -0.00545 0.000326157 -600.289 4677.17 317.673 321.369 5521.02 4543.49 1545530000.0
554 -0.00535 0.00032565 -601.228 4677.85 317.225 321.184 5856.02 4785.53 1543880000.0
553 -0.00525 0.00032511 -602.22 4678.41 316.737 320.978 6206.49 5024.6 1542080000.0
552 -0.00515 0.000324519 -603.317 4679.03 316.203 320.759 6593.29 5307.38 1540220000.0
551 -0.00505 0.000323894 -604.482 4679.45 315.622 320.529 6985.4 5602.39 1538230000.0
550 -0.00495 0.000323198 -605.782 4680.14 314.991 320.263 7443.03 5960.94 1536050000.0
549 -0.00485 0.000322491 -607.112 4680.93 314.354 320.0 7912.04 6293.57 1533840000.0
548 -0.00475 0.000321733 -608.54 4681.6 313.66 319.717 8407.58 6654.51 1531490000.0
547 -0.00465 0.000320932 -610.058 4682.23 312.921 319.412 8926.29 7024.15 1528940000.0
546 -0.00455 0.000320063 -611.72 4683.12 312.134 319.084 9503.51 7454.58 1526260000.0
545 -0.00445 0.000319141 -613.482 4683.78 311.278 318.727 10104.1 7906.23 1523380000.0
544 -0.00435 0.000318165 -615.368 4684.46 310.371 318.352 10735.5 8372.38 1520350000.0
543 -0.00425 0.000317141 -617.35 4685.2 309.421 317.955 11413.7 8863.86 1517160000.0
542 -0.00415 0.000316029 -619.524 4686.0 308.389 317.521 12143.0 9420.17 1513740000.0
541 -0.00405 0.000314854 -621.836 4686.73 307.29 317.058 12914.2 10003.9 1510100000.0
540 -0.00395 0.00031363 -624.265 4687.41 306.139 316.577 13716.7 10591.5 1506320000.0
539 -0.00385 0.000312341 -626.841 4687.99 304.92 316.064 14563.3 11209.8 1502280000.0
538 -0.00375 0.000310937 -629.67 4688.68 303.594 315.497 15489.8 11932.2 1497970000.0
537 -0.00365 0.000309462 -632.67 4689.41 302.2 314.897 16468.7 12689.0 1493430000.0
536 -0.00355 0.000307915 -635.848 4690.15 300.737 314.265 17509.6 13489.3 1488680000.0
535 -0.00345 0.000306268 -639.271 4690.62 299.159 313.585 18601.1 14355.2 1483570000.0
534 -0.00335 0.000304551 -642.864 4691.22 297.52 312.867 19757.3 15250.6 1478250000.0
533 -0.00325 0.000302725 -646.752 4691.76 295.77 312.094 20994.3 16246.4 1472600000.0
532 -0.00315 0.00030081 -650.868 4692.07 293.919 311.275 22285.3 17297.8 1466660000.0
531 -0.00305 0.000298811 -655.22 4692.44 291.988 310.412 23653.8 18408.0 1460460000.0
530 -0.00295 0.000296699 -659.885 4692.68 289.94 309.48 25103.2 19607.5 1453850000.0
529 -0.00285 0.000294488 -664.839 4692.67 287.778 308.5 26621.4 20891.4 1446970000.0
528 -0.00275 0.000292155 -670.152 4692.75 285.503 307.442 28250.6 22302.9 1439710000.0
527 -0.00265 0.000289726 -675.768 4692.74 283.128 306.329 29962.9 23797.1 1432140000.0
526 -0.00255 0.000287203 -681.704 4692.26 280.635 305.152 31741.1 25384.2 1424170000.0
525 -0.00245 0.000284572 -688.011 4691.69 278.03 303.904 33612.1 27066.4 1415840000.0
524 -0.00235 0.00028181 -694.75 4690.95 275.287 302.569 35601.1 28921.9 1407140000.0
523 -0.00225 0.000278982 -701.801 4689.92 272.466 301.176 37654.1 30830.9 1398120000.0
522 -0.00215 0.000276026 -709.31 4688.59 269.502 299.689 39813.3 32905.9 1388670000.0
521 -0.00205 0.000272969 -717.251 4687.05 266.43 298.118 42081.4 35115.6 1378850000.0
520 -0.00195 0.000269825 -725.614 4685.15 263.255 296.47 44439.0 37454.5 1368720000.0
519 -0.00185 0.000266593 -734.404 4682.85 259.973 294.73 46886.2 39915.0 1358190000.0
518 -0.00175 0.000263266 -743.688 4679.94 256.569 292.898 49422.8 42537.1 1347310000.0
517 -0.00165 0.00025984 -753.499 4676.63 253.051 290.967 52075.6 45346.9 1336100000.0
516 -0.00155 0.00025633 -763.807 4672.55 249.415 288.931 54804.4 48307.5 1324510000.0
515 -0.00145 0.000252761 -774.599 4668.03 245.705 286.809 57620.8 51405.2 1312680000.0
514 -0.00135 0.000249102 -785.968 4662.77 241.875 284.57 60538.8 54708.4 1300470000.0
513 -0.00125 0.000245409 -797.802 4656.79 237.983 282.246 63516.2 58117.9 1288080000.0
512 -0.00115 0.000241655 -810.19 4649.84 233.993 279.806 66565.6 61702.4 1275350000.0
511 -0.00105 0.000237835 -823.2 4642.12 229.912 277.252 69706.2 65491.6 1262420000.0
510 -0.00095 0.000233998 -836.706 4633.43 225.78 274.6 72896.5 69387.0 1249300000.0
509 -0.00085 0.000230126 -850.78 4623.48 221.567 271.84 76125.2 73448.9 1236020000.0
508 -0.00075 0.000226231 -865.423 4612.51 217.3 268.966 79407.6 77659.2 1222570000.0
507 -0.00065 0.000222333 -880.602 4600.25 212.989 265.992 82716.1 81995.3 1209040000.0
506 -0.00055 0.000218442 -896.277 4586.65 208.642 262.914 86024.5 86405.6 1195380000.0
505 -0.00045 0.00021455 -912.544 4571.83 204.262 259.733 89368.3 90965.8 1181760000.0
504 -0.00035 0.000210669 -929.357 4555.3 199.842 256.438 92692.9 95613.4 1168020000.0
503 -0.00025 0.000206818 -946.664 4537.43 195.419 253.051 96007.0 100322.0 1154360000.0
502 -0.00015 0.000202987 -964.524 4517.71 190.966 249.554 99289.7 105109.0 1140720000.0
501 -5e-05 0.000199203 -982.842 4496.13 186.511 245.97 102512.0 109922.0 1127140000.0
500 5e-05 0.000195469 -1001.63 4472.88 182.069 242.298 105681.0 114744.0 1113690000.0
499 0.00015 0.000191786 -1020.86 4447.6 177.628 238.534 108759.0 119550.0 1100280000.0
498 0.00025 0.000188163 -1040.5 4420.55 173.213 234.691 111760.0 124332.0 1087060000.0
497 0.00035 0.00018461 -1060.54 4391.45 168.823 230.777 114650.0 129053.0 1074000000.0
496 0.00045 0.00018112 -1080.98 4360.53 164.466 226.785 117445.0 133711.0 1061130000.0
495 0.00055 0.000177715 -1101.68 4327.6 160.155 222.736 120091.0 138226.0 1048370000.0
494 0.00065 0.000174371 -1122.82 4292.28 155.859 218.607 122601.0 142673.0 1035780000.0
493 0.00075 0.00017113 -1144.08 4255.16 151.639 214.455 124947.0 146920.0 1023400000.0
492 0.00085 0.000167968 -1165.62 4215.69 147.457 210.245 127121.0 151002.0 1011090000.0
491 0.00095 0.000164896 -1187.33 4174.58 143.348 206.004 129135.0 154885.0 999025000.0
490 0.00105 0.000161905 -1209.27 4131.12 139.283 201.72 130963.0 158589.0 987068000.0
489 0.00115 0.00015901 -1231.28 4085.91 135.295 197.421 132607.0 162045.0 975275000.0
488 0.00125 0.000156195 -1253.47 4038.57 131.36 193.086 134058.0 165274.0 963550000.0
487 0.00135 0.000153482 -1275.63 3989.6 127.514 188.759 135309.0 168221.0 951937000.0
486 0.00145 0.000150846 -1297.92 3938.48 123.718 184.406 136357.0 170930.0 940382000.0
485 0.00155 0.000148298 -1320.21 3885.76 120.0 180.053 137210.0 173364.0 928905000.0
484 0.00165 0.000145855 -1342.34 3831.41 116.372 175.733 137840.0 175476.0 917395000.0
483 0.00175 0.000143497 -1364.4 3775.72 112.827 171.425 138280.0 177304.0 905950000.0
482 0.00185 0.000141222 -1386.39 3718.46 109.354 167.134 138517.0 178847.0 894476000.0
481 0.00195 0.000139025 -1408.28 3659.56 105.948 162.855 138543.0 180097.0 882907000.0
480 0.00205 0.000136932 -1429.82 3600.13 102.658 158.651 138389.0 181023.0 871341000.0
479 0.00215 0.000134904 -1451.29 3539.31 99.4291 154.455 138046.0 181674.0 859662000.0
478 0.00225 0.000132961 -1472.53 3477.27 96.2792 150.312 137508.0 182037.0 847879000.0
477 0.00235 0.000131089 -1493.54 3414.57 93.2119 146.21 136806.0 182130.0 836034000.0
476 0.00245 0.000129298 -1514.24 3351.07 90.2288 142.164 135922.0 181919.0 823965000.0
475 0.00255 0.000127586 -1534.55 3287.42 87.3434 138.202 134898.0 181463.0 811904000.0
474 0.00265 0.000125935 -1554.67 3222.85 84.5194 134.27 133704.0 180742.0 799590000.0
473 0.00275 0.000124355 -1574.43 3158.01 81.7796 130.412 132373.0 179790.0 787208000.0
472 0.00285 0.000122846 -1593.77 3093.34 79.1329 126.636 130921.0 178595.0 774698000.0
471 0.00295 0.000121396 -1612.81 3028.19 76.5519 122.917 129325.0 177171.0 761943000.0
470 0.00305 0.000120011 -1631.43 2963.32 74.0575 119.282 127635.0 175559.0 749181000.0
469 0.00315 0.000118682 -1649.69 2898.41 71.633 115.715 125824.0 173744.0 736191000.0
468 0.00325 0.000117409 -1667.57 2833.87 69.2869 112.222 123930.0 171752.0 723143000.0
467 0.00335 0.000116196 -1684.99 2769.69 67.0179 108.82 121947.0 169596.0 709960000.0
466 0.00345 0.000115029 -1702.1 2705.76 64.8134 105.48 119885.0 167290.0 696669000.0
465 0.00355 0.000113909 -1718.83 2642.23 62.6754 102.213 117752.0 164847.0 683298000.0
464 0.00365 0.000112842 -1735.07 2579.55 60.6155 99.0405 115572.0 162287.0 669912000.0
463 0.00375 0.000111821 -1750.91 2517.45 58.6213 95.9471 113329.0 159607.0 656387000.0
462 0.00385 0.000110847 -1766.28 2456.37 56.7007 92.9418 111058.0 156832.0 642872000.0
461 0.00395 0.000109916 -1781.25 2395.9 54.8405 90.0199 108745.0 153982.0 629319000.0
460 0.00405 0.000109028 -1795.77 2336.54 53.0493 87.1831 106414.0 151060.0 615787000.0
459 0.00415 0.000108174 -1809.94 2277.98 51.3148 84.415 104061.0 148070.0 602245000.0
458 0.00425 0.000107358 -1823.71 2220.39 49.64 81.7253 101693.0 145027.0 588727000.0
457 0.00435 0.000106574 -1837.1 2163.72 48.0201 79.1105 99320.1 141954.0 575292000.0