ITEM: TIMESTEP
30000
ITEM: NUMBER OF CELLS
800
ITEM: BOX BOUNDS os pp pp
-0.05 0.03
-0.001 0.001
-0.001 0.001
ITEM: CELLS id f_1[1] f_1[2] f_1[3] f_1[4] f_1[5] f_1[6] f_1[7] f_1[8] f_1[9] 
1 -0.04995 8.83425e-05 2216.28 273.11 5.02432 5.02305 -0.176413 -0.315599 1.42745e+06 
2 -0.04985 8.83415e-05 2216.29 273.111 5.02428 5.02307 -0.166899 -0.286292 1.42757e+06 
3 -0.04975 8.83421e-05 2216.29 273.113 5.02435 5.02318 -0.19149 -0.312342 1.42769e+06 
4 -0.04965 8.83412e-05 2216.29 273.111 5.02425 5.02303 -0.208763 -0.359342 1.42767e+06 
5 -0.04955 8.83421e-05 2216.29 273.111 5.0243 5.02315 -0.183872 -0.339875 1.42765e+06 
6 -0.04945 8.83417e-05 2216.29 273.114 5.02434 5.0232 -0.22261 -0.385046 1.42782e+06 
7 -0.04935 8.8342e-05 2216.28 273.113 5.02434 5.02325 -0.252025 -0.420636 1.42803e+06 
8 -0.04925 8.83415e-05 2216.28 273.111 5.02427 5.02329 -0.288347 -0.488634 1.42814e+06 
9 -0.04915 8.8342e-05 2216.29 273.113 5.02434 5.0233 -0.262166 -0.451193 1.42808e+06 
10 -0.04905 8.83418e-05 2216.29 273.115 5.02437 5.02332 -0.306937 -0.504693 1.42821e+06 
11 -0.04895 8.83419e-05 2216.28 273.114 5.02435 5.02334 -0.324989 -0.574312 1.42834e+06 
12 -0.04885 8.83413e-05 2216.28 273.115 5.02433 5.02336 -0.331408 -0.578404 1.42828e+06 
13 -0.04875 8.83422e-05 2216.28 273.113 5.02437 5.02341 -0.302558 -0.537266 1.42832e+06 
14 -0.04865 8.83421e-05 2216.29 273.115 5.02438 5.02341 -0.29964 -0.542334 1.42824e+06 
15 -0.04855 8.83415e-05 2216.29 273.113 5.02433 5.02335 -0.320568 -0.577792 1.42835e+06 
16 -0.04845 8.83419e-05 2216.28 273.113 5.02434 5.02336 -0.354472 -0.623403 1.42858e+06 
17 -0.04835 8.83421e-05 2216.29 273.116 5.0244 5.02344 -0.36807 -0.628064 1.42872e+06 
18 -0.04825 8.83416e-05 2216.29 273.113 5.02433 5.02338 -0.405368 -0.684807 1.42878e+06 
19 -0.04815 8.83418e-05 2216.29 273.117 5.0244 5.02342 -0.39152 -0.64456 1.42887e+06 
20 -0.04805 8.83415e-05 2216.28 273.116 5.02436 5.02343 -0.41007 -0.69657 1.42891e+06 
21 -0.04795 8.83416e-05 2216.28 273.114 5.02434 5.02337 -0.423108 -0.742588 1.42898e+06 
22 -0.04785 8.83422e-05 2216.29 273.116 5.02441 5.02352 -0.444203 -0.747979 1.42924e+06 
23 -0.04775 8.83419e-05 2216.29 273.115 5.02438 5.0235 -0.429935 -0.717757 1.42907e+06 
24 -0.04765 8.83422e-05 2216.28 273.115 5.0244 5.0235 -0.462438 -0.779527 1.42911e+06 
25 -0.04755 8.83414e-05 2216.28 273.115 5.02434 5.02352 -0.472872 -0.778588 1.42927e+06 
34 -0.04665 8.8342e-05 2216.28 273.12 5.02446 5.02376 -0.565217 -0.959174 1.43021e+06 
33 -0.04675 8.83408e-05 2216.29 273.115 5.02432 5.02358 -0.470465 -0.800834 1.42972e+06 
35 -0.04655 8.83422e-05 2216.29 273.117 5.02442 5.02363 -0.497326 -0.82565 1.42983e+06 
36 -0.04645 8.83418e-05 2216.28 273.116 5.02439 5.02365 -0.528491 -0.853171 1.42999e+06 
37 -0.04635 8.83413e-05 2216.29 273.119 5.02441 5.02374 -0.585 -0.979736 1.43038e+06 
38 -0.04625 8.83418e-05 2216.28 273.117 5.02441 5.02374 -0.528848 -0.857573 1.43012e+06 
39 -0.04615 8.83419e-05 2216.28 273.117 5.02441 5.02373 -0.581749 -0.944446 1.43035e+06 
40 -0.04605 8.83417e-05 2216.28 273.119 5.02444 5.02383 -0.615949 -0.98086 1.43054e+06 
41 -0.04595 8.83421e-05 2216.28 273.118 5.02444 5.02378 -0.547433 -0.909747 1.43027e+06 
42 -0.04585 8.83415e-05 2216.29 273.118 5.02441 5.02381 -0.567916 -0.928419 1.43038e+06 
43 -0.04575 8.83422e-05 2216.28 273.117 5.02443 5.02386 -0.609777 -0.984963 1.43069e+06 
44 -0.04565 8.83423e-05 2216.28 273.118 5.02446 5.02393 -0.627827 -1.021 1.43068e+06 
45 -0.04555 8.8342e-05 2216.28 273.12 5.02446 5.024 -0.631054 -1.00113 1.43088e+06 
46 -0.04545 8.83425e-05 2216.28 273.118 5.02447 5.02395 -0.641606 -1.0046 1.43101e+06 
47 -0.04535 8.8342e-05 2216.28 273.118 5.02444 5.02397 -0.669478 -1.03508 1.43103e+06 
48 -0.04525 8.83412e-05 2216.28 273.121 5.02444 5.02398 -0.715687 -1.10024 1.43134e+06 
49 -0.04515 8.83424e-05 2216.28 273.119 5.02448 5.02402 -0.733264 -1.1087 1.43142e+06 
50 -0.04505 8.83414e-05 2216.28 273.122 5.02447 5.02394 -0.714743 -1.08736 1.43132e+06 
26 -0.04745 8.83417e-05 2216.29 273.116 5.02438 5.02357 -0.429302 -0.72424 1.42915e+06 
27 -0.04735 8.83428e-05 2216.28 273.116 5.02444 5.02365 -0.428151 -0.70776 1.42925e+06 
28 -0.04725 8.83407e-05 2216.29 273.114 5.02428 5.02352 -0.462186 -0.756168 1.42934e+06 
29 -0.04715 8.83426e-05 2216.28 273.116 5.02444 5.02372 -0.440584 -0.737994 1.42939e+06 
30 -0.04705 8.83414e-05 2216.29 273.117 5.02438 5.02359 -0.45276 -0.794098 1.42964e+06 
31 -0.04695 8.83412e-05 2216.28 273.115 5.02434 5.02359 -0.450932 -0.755076 1.42946e+06 
32 -0.04685 8.83425e-05 2216.28 273.113 5.02438 5.02366 -0.454573 -0.786449 1.42967e+06 
67 -0.04335 8.83416e-05 2216.28 273.128 5.0246 5.02446 -1.09016 -1.62264 1.43389e+06 
65 -0.04355 8.83416e-05 2216.28 273.128 5.02459 5.02435 -1.12266 -1.6307 1.4339e+06 
66 -0.04345 8.83424e-05 2216.28 273.128 5.02464 5.02441 -1.12262 -1.64275 1.43398e+06 
68 -0.04325 8.8343e-05 2216.28 273.126 5.02464 5.02449 -1.20303 -1.79828 1.43427e+06 
69 -0.04315 8.83418e-05 2216.28 273.13 5.02464 5.02456 -1.23291 -1.84906 1.43454e+06 
70 -0.04305 8.83418e-05 2216.28 273.132 5.02467 5.02447 -1.27988 -1.89907 1.43484e+06 
71 -0.04295 8.83427e-05 2216.28 273.13 5.02469 5.02454 -1.27269 -1.89662 1.43483e+06 
72 -0.04285 8.8342e-05 2216.28 273.131 5.02468 5.02448 -1.30924 -1.92784 1.43496e+06 
73 -0.04275 8.83426e-05 2216.28 273.131 5.02471 5.02458 -1.33715 -1.92382 1.43515e+06 
74 -0.04265 8.83414e-05 2216.28 273.132 5.02466 5.02448 -1.44041 -2.02939 1.43568e+06 
75 -0.04255 8.83418e-05 2216.28 273.133 5.02469 5.02455 -1.41011 -1.9893 1.43545e+06 
51 -0.04495 8.83424e-05 2216.28 273.118 5.02446 5.02393 -0.691768 -1.06525 1.43127e+06 
52 -0.04485 8.83416e-05 2216.29 273.122 5.02449 5.02399 -0.746234 -1.14115 1.43155e+06 
53 -0.04475 8.83417e-05 2216.28 273.121 5.02447 5.02397 -0.745736 -1.1466 1.43154e+06 
54 -0.04465 8.83415e-05 2216.28 273.121 5.02446 5.024 -0.764549 -1.16602 1.4317e+06 
55 -0.04455 8.83418e-05 2216.28 273.12 5.02447 5.02404 -0.792996 -1.18569 1.43179e+06 
56 -0.04445 8.83422e-05 2216.28 273.123 5.02453 5.02407 -0.768574 -1.16425 1.43178e+06 
57 -0.04435 8.8342e-05 2216.28 273.121 5.02449 5.02405 -0.838454 -1.27475 1.43204e+06 
58 -0.04425 8.83416e-05 2216.28 273.124 5.02452 5.02423 -0.854297 -1.25533 1.43233e+06 
59 -0.04415 8.83424e-05 2216.28 273.124 5.02457 5.02419 -0.945015 -1.32278 1.43273e+06 
60 -0.04405 8.8342e-05 2216.28 273.126 5.02458 5.02417 -0.972933 -1.3492 1.43276e+06 
61 -0.04395 8.83422e-05 2216.28 273.124 5.02457 5.02425 -0.931303 -1.3215 1.43281e+06 
62 -0.04385 8.83423e-05 2216.28 273.125 5.02458 5.02424 -0.948768 -1.36342 1.43285e+06 
63 -0.04375 8.83418e-05 2216.28 273.126 5.02458 5.02434 -1.04847 -1.51764 1.43359e+06 
64 -0.04365 8.8342e-05 2216.28 273.127 5.0246 5.02434 -1.10323 -1.5908 1.43381e+06 
100 -0.04005 8.83416e-05 2216.28 273.151 5.02502 5.02524 -2.45671 -3.61787 1.44293e+06 
97 -0.04035 8.83415e-05 2216.28 273.149 5.02497 5.02522 -2.35914 -3.40268 1.44198e+06 
98 -0.04025 8.83414e-05 2216.28 273.148 5.02496 5.02522 -2.40916 -3.51694 1.44252e+06 
99 -0.04015 8.83427e-05 2216.28 273.145 5.02498 5.0252 -2.36492 -3.50438 1.44232e+06 
76 -0.04245 8.83427e-05 2216.28 273.132 5.02474 5.02462 -1.47901 -2.13579 1.43624e+06 
77 -0.04235 8.83416e-05 2216.28 273.133 5.02468 5.02464 -1.55164 -2.21963 1.43626e+06 
78 -0.04225 8.83421e-05 2216.28 273.137 5.02479 5.02478 -1.60135 -2.27699 1.43674e+06 
79 -0.04215 8.8343e-05 2216.28 273.137 5.02484 5.02484 -1.60164 -2.27588 1.43702e+06 
80 -0.04205 8.83413e-05 2216.28 273.136 5.02472 5.02477 -1.62756 -2.35041 1.43715e+06 
81 -0.04195 8.8342e-05 2216.28 273.135 5.02475 5.02473 -1.6711 -2.42269 1.43728e+06 
82 -0.04185 8.83428e-05 2216.28 273.137 5.02483 5.02479 -1.63386 -2.37077 1.4372e+06 
83 -0.04175 8.83416e-05 2216.28 273.14 5.02481 5.0249 -1.78669 -2.64447 1.4381e+06 
84 -0.04165 8.83421e-05 2216.28 273.138 5.02481 5.02497 -1.8063 -2.66553 1.43825e+06 
85 -0.04155 8.8342e-05 2216.28 273.14 5.02485 5.02494 -1.93352 -2.8223 1.43888e+06 
86 -0.04145 8.83421e-05 2216.28 273.145 5.02494 5.02508 -2.0558 -2.90399 1.43957e+06 
87 -0.04135 8.83424e-05 2216.28 273.14 5.02485 5.02504 -2.02823 -2.93632 1.43935e+06 
88 -0.04125 8.83418e-05 2216.28 273.142 5.02487 5.02505 -2.03491 -2.99147 1.43962e+06 
89 -0.04115 8.83421e-05 2216.28 273.142 5.02489 5.02504 -2.06754 -3.04185 1.44002e+06 
90 -0.04105 8.83421e-05 2216.28 273.145 5.02493 5.02513 -2.05745 -3.04243 1.44007e+06 
91 -0.04095 8.83416e-05 2216.28 273.143 5.02487 5.02504 -2.08764 -3.10406 1.44011e+06 
92 -0.04085 8.83417e-05 2216.28 273.143 5.02487 5.02508 -2.12005 -3.13342 1.44047e+06 
93 -0.04075 8.83425e-05 2216.28 273.144 5.02495 5.02512 -2.05813 -3.06701 1.44045e+06 
94 -0.04065 8.83415e-05 2216.28 273.145 5.0249 5.02506 -2.12164 -3.12716 1.4406e+06 
95 -0.04055 8.83422e-05 2216.28 273.143 5.02491 5.0251 -2.14307 -3.17342 1.44091e+06 
96 -0.04045 8.83421e-05 2216.28 273.144 5.02491 5.02515 -2.20109 -3.251 1.44121e+06 
101 -0.03995 8.83427e-05 2216.28 273.149 5.02505 5.02523 -2.46963 -3.61903 1.44303e+06 
102 -0.03985 8.83413e-05 2216.28 273.151 5.025 5.02513 -2.5481 -3.67623 1.44356e+06 
103 -0.03975 8.83427e-05 2216.28 273.151 5.02508 5.02531 -2.61407 -3.79587 1.44403e+06 
104 -0.03965 8.83413e-05 2216.28 273.152 5.02502 5.02518 -2.67496 -3.90392 1.4442e+06 
105 -0.03955 8.83422e-05 2216.28 273.153 5.0251 5.02526 -2.7976 -4.055 1.44518e+06 
106 -0.03945 8.83417e-05 2216.28 273.159 5.02518 5.02535 -2.87669 -4.15933 1.44551e+06 
107 -0.03935 8.83418e-05 2216.28 273.157 5.02514 5.02532 -2.99864 -4.30974 1.44628e+06 
108 -0.03925 8.83426e-05 2216.27 273.161 5.02526 5.02545 -3.20921 -4.59718 1.44734e+06 
109 -0.03915 8.83415e-05 2216.28 273.164 5.02525 5.0255 -3.23302 -4.63081 1.44777e+06 
110 -0.03905 8.83417e-05 2216.28 273.161 5.0252 5.02543 -3.18588 -4.57813 1.44762e+06 
111 -0.03895 8.83427e-05 2216.28 273.163 5.02531 5.02558 -3.31377 -4.77133 1.44844e+06 
112 -0.03885 8.83421e-05 2216.27 273.165 5.02531 5.02558 -3.3413 -4.88827 1.44886e+06 
113 -0.03875 8.83415e-05 2216.28 273.165 5.02527 5.02558 -3.41631 -4.97045 1.44955e+06 
114 -0.03865 8.83419e-05 2216.27 273.166 5.02532 5.02572 -3.55358 -5.15292 1.45004e+06 
115 -0.03855 8.83426e-05 2216.27 273.171 5.02545 5.02575 -3.68514 -5.28533 1.45082e+06 
116 -0.03845 8.83427e-05 2216.27 273.173 5.02548 5.02583 -3.80466 -5.49611 1.45191e+06 
117 -0.03835 8.83415e-05 2216.28 273.171 5.02539 5.02585 -3.91481 -5.66561 1.45238e+06 
118 -0.03825 8.83425e-05 2216.27 273.174 5.02548 5.02584 -4.02491 -5.83736 1.45306e+06 
119 -0.03815 8.83421e-05 2216.27 273.181 5.0256 5.02604 -4.23819 -6.09167 1.45437e+06 
120 -0.03805 8.83418e-05 2216.27 273.178 5.02553 5.02601 -4.13389 -6.03326 1.45389e+06 
121 -0.03795 8.83425e-05 2216.27 273.181 5.02562 5.02614 -4.47328 -6.60717 1.45585e+06 
122 -0.03785 8.83422e-05 2216.27 273.181 5.02562 5.02612 -4.34049 -6.35407 1.45535e+06 
123 -0.03775 8.83425e-05 2216.27 273.182 5.02564 5.02617 -4.42544 -6.52114 1.45635e+06 
124 -0.03765 8.83421e-05 2216.27 273.185 5.02567 5.02622 -4.52669 -6.63132 1.45682e+06 
125 -0.03755 8.83423e-05 2216.27 273.187 5.02571 5.02636 -4.73473 -7.05399 1.45821e+06 
134 -0.03665 8.83428e-05 2216.27 273.201 5.02601 5.02686 -5.51184 -8.13958 1.46393e+06 
129 -0.03715 8.83429e-05 2216.27 273.189 5.02579 5.02652 -4.90076 -7.22053 1.45977e+06 
130 -0.03705 8.83423e-05 2216.27 273.193 5.02583 5.02666 -5.10748 -7.54287 1.46106e+06 
131 -0.03695 8.83426e-05 2216.27 273.196 5.0259 5.02667 -5.14706 -7.61194 1.4613e+06 
132 -0.03685 8.83429e-05 2216.27 273.196 5.02592 5.02673 -5.26038 -7.85662 1.46204e+06 
133 -0.03675 8.8342e-05 2216.27 273.198 5.02591 5.0268 -5.51679 -8.1653 1.46369e+06 
135 -0.03655 8.8343e-05 2216.27 273.204 5.02608 5.02692 -5.75415 -8.43634 1.46517e+06 
136 -0.03645 8.83418e-05 2216.27 273.209 5.0261 5.02705 -6.08919 -8.82888 1.46696e+06 
137 -0.03635 8.83431e-05 2216.27 273.213 5.02624 5.02723 -6.21832 -9.05226 1.4682e+06 
138 -0.03625 8.83421e-05 2216.27 273.215 5.02623 5.02719 -6.34827 -9.25936 1.46886e+06 
139 -0.03615 8.83424e-05 2216.27 273.218 5.02629 5.02732 -6.51866 -9.50776 1.46983e+06 
140 -0.03605 8.83425e-05 2216.27 273.223 5.0264 5.0275 -6.8942 -9.96606 1.47192e+06 
141 -0.03595 8.83432e-05 2216.27 273.225 5.02647 5.02762 -7.08555 -10.3342 1.4735e+06 
142 -0.03585 8.83434e-05 2216.27 273.225 5.02648 5.02767 -7.00515 -10.2997 1.47343e+06 
143 -0.03575 8.83425e-05 2216.27 273.229 5.0265 5.02775 -7.30916 -10.7469 1.47531e+06 
144 -0.03565 8.83431e-05 2216.26 273.237 5.02668 5.02805 -7.59626 -11.0748 1.47675e+06 
145 -0.03555 8.83424e-05 2216.26 273.237 5.02665 5.02807 -7.78895 -11.418 1.47854e+06 
146 -0.03545 8.83431e-05 2216.26 273.24 5.02674 5.02817 -7.96861 -11.6531 1.47954e+06 
147 -0.03535 8.83423e-05 2216.26 273.242 5.02673 5.02825 -8.1155 -11.8879 1.48077e+06 
148 -0.03525 8.83423e-05 2216.26 273.25 5.02689 5.02839 -8.3531 -12.1652 1.48212e+06 
149 -0.03515 8.8344e-05 2216.26 273.25 5.02697 5.02853 -8.57031 -12.5127 1.48372e+06 
150 -0.03505 8.83426e-05 2216.26 273.254 5.02698 5.02858 -8.80771 -12.8266 1.48487e+06 
126 -0.03745 8.83421e-05 2216.27 273.188 5.02573 5.0264 -4.75646 -7.02134 1.45837e+06 
127 -0.03735 8.83422e-05 2216.27 273.187 5.02572 5.02642 -4.71252 -6.96882 1.45859e+06 
128 -0.03725 8.83419e-05 2216.27 273.188 5.02572 5.02647 -4.87953 -7.24489 1.45958e+06 
167 -0.03335 8.83431e-05 2216.24 273.351 5.02879 5.03175 -14.5529 -21.1552 1.52263e+06 
161 -0.03395 8.83435e-05 2216.25 273.306 5.02798 5.03031 -12.0275 -17.5451 1.5066e+06 
162 -0.03385 8.83432e-05 2216.25 273.312 5.02808 5.03044 -12.2967 -17.8614 1.50827e+06 
163 -0.03375 8.83435e-05 2216.25 273.322 5.02827 5.03083 -12.8191 -18.7466 1.51163e+06 
164 -0.03365 8.83426e-05 2216.25 273.321 5.0282 5.03077 -12.8396 -18.7818 1.51225e+06 
165 -0.03355 8.83435e-05 2216.25 273.33 5.02842 5.03112 -13.3492 -19.4656 1.51515e+06 
166 -0.03345 8.8343e-05 2216.25 273.336 5.02849 5.0313 -13.7443 -20.1161 1.51807e+06 
168 -0.03325 8.83441e-05 2216.24 273.353 5.02887 5.03185 -14.75 -21.5127 1.52433e+06 
169 -0.03315 8.83438e-05 2216.24 273.36 5.02898 5.03207 -15.1647 -22.1149 1.52719e+06 
170 -0.03305 8.83438e-05 2216.24 273.366 5.02911 5.0324 -15.5471 -22.744 1.52955e+06 
171 -0.03295 8.83433e-05 2216.24 273.373 5.0292 5.0325 -15.987 -23.46 1.53265e+06 
172 -0.03285 8.83435e-05 2216.24 273.379 5.02933 5.03272 -16.2733 -23.8476 1.53479e+06 
173 -0.03275 8.83438e-05 2216.24 273.38 5.02936 5.03272 -16.4591 -24.2575 1.53654e+06 
174 -0.03265 8.83436e-05 2216.24 273.389 5.02951 5.03278 -16.8677 -24.7685 1.53934e+06 
175 -0.03255 8.83442e-05 2216.24 273.392 5.0296 5.033 -17.1577 -25.3242 1.5413e+06 
151 -0.03495 8.83426e-05 2216.26 273.26 5.02708 5.02875 -9.116 -13.2076 1.48717e+06 
152 -0.03485 8.83429e-05 2216.26 273.263 5.02716 5.02881 -9.32859 -13.4783 1.48845e+06 
153 -0.03475 8.83428e-05 2216.26 273.266 5.02721 5.02888 -9.50825 -13.7944 1.48975e+06 
154 -0.03465 8.83434e-05 2216.26 273.272 5.02734 5.02915 -9.77816 -14.2614 1.49176e+06 
155 -0.03455 8.83428e-05 2216.26 273.272 5.02731 5.0292 -9.92243 -14.4832 1.49297e+06 
156 -0.03445 8.83433e-05 2216.26 273.278 5.02746 5.0294 -10.2223 -14.9194 1.49487e+06 
157 -0.03435 8.8343e-05 2216.26 273.286 5.02759 5.02967 -10.7492 -15.6263 1.49808e+06 
158 -0.03425 8.83432e-05 2216.25 273.291 5.02769 5.0298 -10.981 -15.9999 1.49933e+06 
159 -0.03415 8.8343e-05 2216.26 273.294 5.02773 5.0299 -11.0735 -16.2419 1.50093e+06 
160 -0.03405 8.83421e-05 2216.25 273.302 5.02782 5.0301 -11.5819 -16.8726 1.50346e+06 
200 -0.03005 8.83461e-05 2216.19 273.686 5.03512 5.04264 -34.914 -51.2784 1.65686e+06 
193 -0.03075 8.83442e-05 2216.2 273.588 5.03321 5.03966 -29.0262 -42.9196 1.61848e+06 
194 -0.03065 8.83456e-05 2216.21 273.595 5.03342 5.03974 -29.1672 -42.9516 1.62008e+06 
195 -0.03055 8.83441e-05 2216.2 273.609 5.03359 5.04017 -30.306 -44.6604 1.62752e+06 
196 -0.03045 8.83459e-05 2216.2 273.622 5.03393 5.04069 -30.9338 -45.5738 1.63154e+06 
197 -0.03035 8.83447e-05 2216.2 273.631 5.03403 5.04095 -31.6168 -46.8644 1.63658e+06 
198 -0.03025 8.83453e-05 2216.2 273.65 5.03442 5.04151 -32.4493 -47.9959 1.64184e+06 
199 -0.03015 8.8346e-05 2216.19 273.666 5.03474 5.04198 -33.449 -49.446 1.64846e+06 
176 -0.03245 8.83435e-05 2216.24 273.401 5.02972 5.03328 -17.6703 -26.0372 1.54475e+06 
177 -0.03235 8.83438e-05 2216.24 273.41 5.0299 5.0335 -18.1545 -26.7577 1.54814e+06 
178 -0.03225 8.83437e-05 2216.23 273.417 5.03004 5.03384 -18.6913 -27.4548 1.551e+06 
179 -0.03215 8.83435e-05 2216.23 273.434 5.03034 5.03433 -19.508 -28.4768 1.55626e+06 
180 -0.03205 8.83429e-05 2216.23 273.439 5.0304 5.03447 -20.0337 -29.3313 1.55962e+06 
181 -0.03195 8.83446e-05 2216.23 273.445 5.03061 5.03487 -20.3666 -30.0303 1.56208e+06 
182 -0.03185 8.83436e-05 2216.23 273.455 5.03072 5.03511 -20.7939 -30.6668 1.56555e+06 
183 -0.03175 8.83437e-05 2216.23 273.455 5.03073 5.03511 -20.9703 -31.0061 1.56723e+06 
184 -0.03165 8.83434e-05 2216.23 273.468 5.03096 5.03558 -21.7089 -32.039 1.57202e+06 
185 -0.03155 8.8345e-05 2216.22 273.477 5.03122 5.03598 -22.1841 -32.8216 1.57537e+06 
186 -0.03145 8.8344e-05 2216.22 273.495 5.03148 5.03647 -23.3572 -34.2938 1.58155e+06 
187 -0.03135 8.83442e-05 2216.22 273.51 5.03178 5.03692 -24.245 -35.5458 1.58782e+06 
188 -0.03125 8.8345e-05 2216.22 273.525 5.0321 5.03753 -25.0758 -36.7671 1.59257e+06 
189 -0.03115 8.83439e-05 2216.22 273.529 5.03211 5.03759 -25.4308 -37.5293 1.59589e+06 
190 -0.03105 8.83444e-05 2216.21 273.535 5.03225 5.03779 -25.7352 -38.0097 1.59844e+06 
191 -0.03095 8.83445e-05 2216.21 273.548 5.03249 5.03826 -26.4504 -39.2135 1.60334e+06 
192 -0.03085 8.83454e-05 2216.21 273.568 5.03292 5.03889 -27.7015 -40.8853 1.61031e+06 
201 -0.02995 8.83452e-05 2216.19 273.695 5.03524 5.0428 -35.3557 -52.0917 1.66091e+06 
225 -0.02755 8.83497e-05 2216.09 274.29 5.04643 5.0621 -71.0031 -104.73 1.89177e+06 
202 -0.02985 8.83466e-05 2216.18 273.717 5.03571 5.04357 -36.6931 -53.9625 1.66846e+06 
203 -0.02975 8.83456e-05 2216.18 273.732 5.03595 5.04403 -37.4566 -55.1489 1.67402e+06 
204 -0.02965 8.83455e-05 2216.18 273.75 5.03627 5.04452 -38.6802 -56.8884 1.6817e+06 
205 -0.02955 8.83462e-05 2216.18 273.768 5.03663 5.04519 -39.6455 -58.4689 1.68868e+06 
206 -0.02945 8.83461e-05 2216.17 273.785 5.03694 5.04572 -40.7272 -60.0138 1.6952e+06 
207 -0.02935 8.83473e-05 2216.17 273.812 5.03751 5.04669 -42.3486 -62.3802 1.70549e+06 
208 -0.02925 8.83465e-05 2216.17 273.835 5.03787 5.04741 -43.6769 -64.5987 1.71399e+06 
209 -0.02915 8.83468e-05 2216.16 273.855 5.03827 5.04811 -44.9454 -66.3829 1.72185e+06 
210 -0.02905 8.83467e-05 2216.16 273.88 5.03872 5.04877 -46.482 -68.4167 1.73256e+06 
211 -0.02895 8.83471e-05 2216.15 273.897 5.03905 5.04934 -47.3099 -69.7943 1.73733e+06 
212 -0.02885 8.83478e-05 2216.15 273.922 5.03955 5.05019 -49.0312 -72.2762 1.74858e+06 
213 -0.02875 8.83467e-05 2216.15 273.95 5.04001 5.05104 -50.6237 -74.4061 1.75876e+06 
214 -0.02865 8.83475e-05 2216.14 273.964 5.04032 5.05145 -51.5099 -75.8132 1.76518e+06 
215 -0.02855 8.83473e-05 2216.14 273.993 5.04084 5.05243 -53.2652 -78.4462 1.77599e+06 
216 -0.02845 8.83472e-05 2216.14 274.017 5.04127 5.05319 -54.5274 -80.3456 1.78459e+06 
217 -0.02835 8.83485e-05 2216.13 274.048 5.04192 5.05434 -56.5503 -83.4672 1.79724e+06 
218 -0.02825 8.8348e-05 2216.12 274.074 5.04237 5.05519 -58.1343 -85.6966 1.80687e+06 
219 -0.02815 8.8349e-05 2216.12 274.099 5.04289 5.05603 -59.6057 -87.9845 1.81798e+06 
220 -0.02805 8.83478e-05 2216.12 274.126 5.04331 5.05689 -61.1951 -90.4067 1.82794e+06 
221 -0.02795 8.83485e-05 2216.11 274.151 5.04382 5.05775 -62.7059 -92.8054 1.83823e+06 
222 -0.02785 8.83483e-05 2216.11 274.181 5.04435 5.05864 -64.6361 -95.5778 1.85143e+06 
223 -0.02775 8.83495e-05 2216.1 274.222 5.04517 5.05994 -66.9049 -98.6592 1.86493e+06 
224 -0.02765 8.83493e-05 2216.1 274.252 5.04572 5.06084 -68.7434 -101.313 1.87672e+06 
234 -0.02665 8.83514e-05 2216.03 274.636 5.05289 5.07369 -91.8791 -136.185 2.02819e+06 
226 -0.02745 8.83507e-05 2216.08 274.327 5.04717 5.06335 -73.3485 -108.081 1.90657e+06 
227 -0.02735 8.83507e-05 2216.08 274.357 5.04772 5.06429 -75.1124 -110.67 1.91837e+06 
228 -0.02725 8.83503e-05 2216.07 274.403 5.04855 5.06565 -77.9045 -114.549 1.93572e+06 
229 -0.02715 8.83502e-05 2216.07 274.436 5.04915 5.0668 -79.79 -117.566 1.94916e+06 
230 -0.02705 8.83515e-05 2216.06 274.474 5.04992 5.06823 -82.2125 -121.313 1.96426e+06 
231 -0.02695 8.83522e-05 2216.05 274.499 5.05043 5.06911 -83.6708 -123.945 1.97562e+06 
232 -0.02685 8.83505e-05 2216.05 274.548 5.05123 5.07072 -86.7622 -128.599 1.99419e+06 
233 -0.02675 8.83525e-05 2216.04 274.594 5.05219 5.07232 -89.2932 -132.295 2.01095e+06 
235 -0.02655 8.83523e-05 2216.02 274.677 5.0537 5.0749 -94.4013 -139.536 2.0435e+06 
236 -0.02645 8.83533e-05 2216.01 274.728 5.0547 5.07647 -97.4595 -143.901 2.06351e+06 
237 -0.02635 8.83522e-05 2216.01 274.764 5.05531 5.07752 -99.699 -147.169 2.07878e+06 
238 -0.02625 8.83531e-05 2216 274.82 5.05639 5.07935 -102.907 -151.738 2.09911e+06 
239 -0.02615 8.83538e-05 2215.99 274.872 5.05737 5.08095 -106.062 -156.354 2.11941e+06 
240 -0.02605 8.83536e-05 2215.98 274.925 5.05834 5.08267 -109.272 -161.038 2.13938e+06 
241 -0.02595 8.83536e-05 2215.97 274.974 5.05924 5.08446 -112.206 -165.844 2.15995e+06 
242 -0.02585 8.83549e-05 2215.96 275.036 5.06046 5.08656 -115.859 -171.322 2.18269e+06 
243 -0.02575 8.83553e-05 2215.95 275.095 5.06156 5.08839 -119.455 -176.258 2.20501e+06 
244 -0.02565 8.83549e-05 2215.95 275.162 5.06277 5.09048 -123.559 -182.125 2.23163e+06 
245 -0.02555 8.83561e-05 2215.93 275.208 5.0637 5.09197 -126.183 -186.216 2.24835e+06 
246 -0.02545 8.83574e-05 2215.92 275.272 5.06494 5.09432 -130.235 -192.585 2.27556e+06 
247 -0.02535 8.83562e-05 2215.92 275.334 5.06601 5.09613 -133.73 -197.621 2.29864e+06 
248 -0.02525 8.83564e-05 2215.9 275.393 5.06712 5.09811 -137.528 -203.353 2.3232e+06 
249 -0.02515 8.83583e-05 2215.89 275.472 5.06868 5.10081 -142.295 -210.245 2.35236e+06 
250 -0.02505 8.83575e-05 2215.88 275.541 5.06991 5.1029 -146.301 -216.074 2.37942e+06 
267 -0.02335 8.83682e-05 2215.62 277.103 5.09926 5.15444 -240.404 -356.344 2.98443e+06 
257 -0.02435 8.8361e-05 2215.79 276.075 5.07993 5.12048 -178.596 -264.443 2.58839e+06 
258 -0.02425 8.83626e-05 2215.77 276.164 5.08166 5.12366 -183.682 -272.313 2.62133e+06 
259 -0.02415 8.83623e-05 2215.76 276.252 5.08325 5.12657 -189.113 -280.684 2.65668e+06 
260 -0.02405 8.83633e-05 2215.74 276.341 5.08496 5.1295 -194.45 -288.484 2.6907e+06 
261 -0.02395 8.83643e-05 2215.73 276.434 5.08673 5.13228 -200.135 -296.334 2.72742e+06 
262 -0.02385 8.83648e-05 2215.71 276.534 5.08859 5.13576 -205.971 -305.707 2.76551e+06 
263 -0.02375 8.83651e-05 2215.7 276.635 5.09047 5.13889 -212.199 -314.379 2.80497e+06 
264 -0.02365 8.83663e-05 2215.68 276.754 5.09273 5.14298 -219.291 -325.004 2.84876e+06 
265 -0.02355 8.83663e-05 2215.66 276.868 5.09482 5.14655 -226.113 -335.088 2.89327e+06 
266 -0.02345 8.8368e-05 2215.64 276.992 5.09721 5.15083 -233.715 -346.381 2.9403e+06 
268 -0.02325 8.83697e-05 2215.6 277.233 5.10173 5.15867 -248.267 -367.877 3.03393e+06 
269 -0.02315 8.83699e-05 2215.57 277.36 5.10409 5.16279 -255.68 -378.841 3.08098e+06 
270 -0.02305 8.83703e-05 2215.56 277.473 5.10618 5.16641 -262.439 -389.071 3.12625e+06 
271 -0.02295 8.83718e-05 2215.53 277.618 5.10895 5.17129 -271.38 -402.364 3.18284e+06 
272 -0.02285 8.83723e-05 2215.51 277.741 5.11124 5.17535 -278.664 -413.378 3.22959e+06 
273 -0.02275 8.83735e-05 2215.49 277.877 5.1138 5.17986 -286.76 -425.566 3.28283e+06 
274 -0.02265 8.83741e-05 2215.46 278.043 5.11691 5.18525 -296.879 -440.125 3.34482e+06 
275 -0.02255 8.83754e-05 2215.44 278.189 5.11966 5.18999 -305.671 -453 3.4015e+06 
251 -0.02495 8.83588e-05 2215.87 275.607 5.07118 5.10508 -150.291 -222.187 2.40538e+06 
252 -0.02485 8.83587e-05 2215.86 275.68 5.07253 5.10756 -154.692 -228.94 2.43334e+06 
253 -0.02475 8.83591e-05 2215.84 275.771 5.07422 5.1106 -160.118 -236.88 2.46667e+06 
254 -0.02465 8.83602e-05 2215.83 275.844 5.07564 5.11313 -164.7 -243.824 2.49805e+06 
255 -0.02455 8.83607e-05 2215.81 275.914 5.07695 5.11546 -168.814 -250.402 2.52575e+06 
256 -0.02445 8.83611e-05 2215.8 276.001 5.07857 5.11814 -174.024 -257.533 2.55763e+06 
300 -0.02005 8.84142e-05 2214.46 283.983 5.22859 5.38162 -653.914 -971.563 5.62489e+06 
289 -0.02115 8.83924e-05 2214.98 280.894 5.17043 5.27924 -468.415 -694.932 4.44157e+06 
290 -0.02105 8.83952e-05 2214.94 281.117 5.1747 5.28649 -481.559 -714.332 4.52612e+06 
291 -0.02095 8.83972e-05 2214.9 281.371 5.1795 5.29506 -496.872 -737.593 4.62404e+06 
292 -0.02085 8.83981e-05 2214.86 281.634 5.18438 5.30354 -512.526 -760.48 4.72232e+06 
293 -0.02075 8.83998e-05 2214.81 281.904 5.18945 5.31243 -529.125 -785.044 4.82985e+06 
294 -0.02065 8.84025e-05 2214.77 282.149 5.19413 5.32084 -543.645 -807.45 4.92296e+06 
295 -0.02055 8.84041e-05 2214.72 282.426 5.19932 5.3301 -560.56 -832.788 5.03205e+06 
296 -0.02045 8.84052e-05 2214.67 282.714 5.2047 5.33905 -577.535 -857.053 5.13872e+06 
297 -0.02035 8.8408e-05 2214.62 283.018 5.21044 5.34896 -595.787 -883.938 5.25627e+06 
298 -0.02025 8.84102e-05 2214.57 283.342 5.21654 5.35996 -615.457 -913.579 5.3799e+06 
299 -0.02015 8.84122e-05 2214.51 283.669 5.22268 5.37085 -634.986 -942.408 5.50206e+06 
276 -0.02245 8.8376e-05 2215.41 278.344 5.12255 5.195 -315.04 -467.105 3.46218e+06 
277 -0.02235 8.8377e-05 2215.39 278.492 5.12533 5.19974 -323.7 -479.64 3.5178e+06 
278 -0.02225 8.83793e-05 2215.35 278.66 5.12855 5.20562 -333.99 -495.523 3.58424e+06 
279 -0.02215 8.83793e-05 2215.33 278.83 5.13168 5.21091 -343.928 -509.933 3.64802e+06 
280 -0.02205 8.83804e-05 2215.3 279.021 5.13526 5.21717 -355.7 -526.943 3.72182e+06 
281 -0.02195 8.83822e-05 2215.27 279.189 5.13845 5.22243 -365.584 -541.334 3.78578e+06 
282 -0.02185 8.83828e-05 2215.24 279.39 5.14219 5.22911 -377.713 -559.489 3.86258e+06 
283 -0.02175 8.83847e-05 2215.21 279.564 5.1455 5.23499 -388.325 -575.68 3.93232e+06 
284 -0.02165 8.83854e-05 2215.17 279.75 5.14897 5.24126 -399.509 -592.889 4.00595e+06 
285 -0.02155 8.83875e-05 2215.14 279.972 5.15318 5.24836 -412.684 -611.629 4.08777e+06 
286 -0.02145 8.83887e-05 2215.1 280.189 5.15724 5.25563 -425.965 -631.633 4.17324e+06 
287 -0.02135 8.83901e-05 2215.06 280.404 5.16129 5.26303 -438.886 -651.616 4.25671e+06 
288 -0.02125 8.83918e-05 2215.02 280.632 5.16558 5.27041 -452.316 -670.912 4.33847e+06 
301 -0.01995 8.84172e-05 2214.4 284.339 5.23531 5.39304 -675.311 -1002.42 5.75918e+06 
321 -0.01795 8.84834e-05 2212.75 294.051 5.41819 5.71527 -1258.41 -1868.73 9.44748e+06 
322 -0.01785 8.84866e-05 2212.64 294.701 5.43037 5.73692 -1297.53 -1927.42 9.69664e+06 
323 -0.01775 8.8492e-05 2212.52 295.371 5.44305 5.75976 -1337.66 -1988.37 9.95071e+06 
324 -0.01765 8.84956e-05 2212.4 296.07 5.45615 5.78302 -1379.7 -2051.1 1.02169e+07 
325 -0.01755 8.85012e-05 2212.28 296.775 5.46948 5.80667 -1422.02 -2115.05 1.04887e+07 
302 -0.01985 8.84187e-05 2214.34 284.689 5.24184 5.40434 -696.199 -1033.01 5.89207e+06 
303 -0.01975 8.84218e-05 2214.28 285.026 5.24823 5.41576 -716.628 -1064.51 6.02485e+06 
304 -0.01965 8.84238e-05 2214.21 285.432 5.25583 5.4291 -740.783 -1100 6.17582e+06 
305 -0.01955 8.84259e-05 2214.15 285.8 5.26274 5.44082 -762.898 -1131.94 6.31667e+06 
306 -0.01945 8.8429e-05 2214.09 286.192 5.27015 5.45421 -786.811 -1168.29 6.47034e+06 
307 -0.01935 8.84322e-05 2214.02 286.609 5.27801 5.46778 -811.756 -1204.91 6.62794e+06 
308 -0.01925 8.84348e-05 2213.94 287.029 5.28591 5.4819 -836.905 -1242.4 6.78563e+06 
309 -0.01915 8.84374e-05 2213.87 287.488 5.29451 5.49674 -864.439 -1282.43 6.9586e+06 
310 -0.01905 8.84415e-05 2213.79 287.95 5.30326 5.51252 -892.122 -1324.4 7.13395e+06 
311 -0.01895 8.84442e-05 2213.71 288.418 5.31204 5.52781 -920.286 -1365.75 7.31298e+06 
312 -0.01885 8.84476e-05 2213.63 288.897 5.32106 5.5434 -949.014 -1407.67 7.49427e+06 
313 -0.01875 8.84507e-05 2213.55 289.399 5.3305 5.56026 -978.895 -1452.78 7.68335e+06 
314 -0.01865 8.84534e-05 2213.46 289.87 5.33934 5.57639 -1007.71 -1497.3 7.87118e+06 
315 -0.01855 8.84577e-05 2213.38 290.359 5.3486 5.59257 -1036.78 -1540.97 8.05751e+06 
316 -0.01845 8.84604e-05 2213.28 290.938 5.35944 5.61191 -1071.57 -1592.66 8.27515e+06 
317 -0.01835 8.84665e-05 2213.18 291.528 5.37068 5.63135 -1106.96 -1644.19 8.49559e+06 
318 -0.01825 8.84694e-05 2213.07 292.169 5.38266 5.65279 -1145.42 -1700.77 8.7331e+06 
319 -0.01815 8.84736e-05 2212.97 292.764 5.39387 5.67172 -1181.06 -1752.3 8.95964e+06 
320 -0.01805 8.84775e-05 2212.86 293.402 5.40587 5.69332 -1219.72 -1810.28 9.20296e+06 
334 -0.01665 8.8554e-05 2210.94 304.636 5.61771 6.06898 -1893.53 -2815.28 1.34476e+07 
326 -0.01745 8.85076e-05 2212.15 297.553 5.48422 5.83302 -1468.54 -2184.57 1.07782e+07 
327 -0.01735 8.85118e-05 2212.01 298.349 5.49915 5.85912 -1516.34 -2254.67 1.10778e+07 
328 -0.01725 8.85171e-05 2211.88 299.148 5.51421 5.88585 -1564.23 -2326.43 1.1382e+07 
329 -0.01715 8.85233e-05 2211.73 299.978 5.5299 5.91334 -1614.23 -2400.2 1.1697e+07 
330 -0.01705 8.85297e-05 2211.58 300.909 5.54747 5.94431 -1669.9 -2481.62 1.20392e+07 
331 -0.01695 8.8535e-05 2211.43 301.773 5.56372 5.97338 -1721.78 -2560.3 1.23692e+07 
332 -0.01685 8.8541e-05 2211.27 302.687 5.58094 6.00357 -1776.67 -2641.16 1.27154e+07 
333 -0.01675 8.85487e-05 2211.11 303.648 5.59915 6.0356 -1834.12 -2726.11 1.30739e+07 
335 -0.01655 8.85629e-05 2210.77 305.641 5.6368 6.10241 -1953.74 -2904.75 1.3828e+07 
336 -0.01645 8.85683e-05 2210.58 306.721 5.65708 6.13802 -2018.24 -2999.15 1.42277e+07 
337 -0.01635 8.85763e-05 2210.4 307.796 5.6774 6.17482 -2083.17 -3097.98 1.46395e+07 
338 -0.01625 8.85845e-05 2210.21 308.882 5.69797 6.21135 -2147.82 -3195.33 1.5048e+07 
339 -0.01615 8.85919e-05 2210.01 310.039 5.7198 6.24995 -2217.18 -3298.08 1.54812e+07 
340 -0.01605 8.86012e-05 2209.8 311.27 5.74311 6.29141 -2290.8 -3407.85 1.59404e+07 
341 -0.01595 8.86096e-05 2209.58 312.556 5.76738 6.33523 -2368.03 -3523.42 1.64199e+07 
342 -0.01585 8.86179e-05 2209.36 313.828 5.7914 6.37775 -2444.1 -3636.89 1.68976e+07 