TITLE = "DSMC"
VARIABLES = "ID" "X" "rho" "v1" "Ttrans" "p" "p1" "q1" "mv1v1v1" "mvvv1v1"
ZONE T="Ma=4.0", I=900, J=1, K=1, F=POINT
1 -0.05995 8.83408e-05 1231.28 273.118 5.02437 5.02314 -0.0932662 -0.201927 1426790.0
2 -0.05985 8.83416e-05 1231.28 273.119 5.02444 5.02325 -0.161179 -0.339158 1426990.0
3 -0.05975 8.83408e-05 1231.28 273.12 5.02441 5.02338 -0.196586 -0.438652 1427140.0
4 -0.05965 8.8342e-05 1231.28 273.124 5.02454 5.02362 -0.232849 -0.516839 1427350.0
5 -0.05955 8.8341e-05 1231.27 273.123 5.02447 5.0236 -0.270906 -0.557744 1427400.0
6 -0.05945 8.83416e-05 1231.27 273.124 5.02452 5.02372 -0.294537 -0.571631 1427510.0
7 -0.05935 8.8341e-05 1231.28 273.123 5.02447 5.02373 -0.324421 -0.62359 1427600.0
8 -0.05925 8.83416e-05 1231.27 273.126 5.02457 5.02395 -0.339974 -0.686173 1427690.0
9 -0.05915 8.83415e-05 1231.27 273.125 5.02454 5.02406 -0.354574 -0.736504 1427780.0
10 -0.05905 8.83417e-05 1231.27 273.126 5.02458 5.02406 -0.358743 -0.74483 1427760.0
11 -0.05895 8.83413e-05 1231.27 273.126 5.02454 5.02399 -0.363103 -0.758059 1427790.0
12 -0.05885 8.83424e-05 1231.27 273.127 5.02463 5.02421 -0.413399 -0.848872 1427960.0
13 -0.05875 8.8342e-05 1231.27 273.126 5.02459 5.0241 -0.431053 -0.869624 1427910.0
14 -0.05865 8.83414e-05 1231.27 273.128 5.02458 5.02411 -0.428589 -0.807907 1427950.0
15 -0.05855 8.83416e-05 1231.27 273.13 5.02463 5.02424 -0.457079 -0.896951 1427990.0
16 -0.05845 8.8342e-05 1231.27 273.128 5.02461 5.0241 -0.443762 -0.859844 1427990.0
17 -0.05835 8.83418e-05 1231.27 273.128 5.02461 5.02404 -0.418761 -0.815922 1427900.0
18 -0.05825 8.83416e-05 1231.27 273.127 5.02458 5.024 -0.420422 -0.830157 1427930.0
19 -0.05815 8.83419e-05 1231.27 273.127 5.02459 5.02388 -0.390313 -0.74797 1427850.0
20 -0.05805 8.8341e-05 1231.27 273.125 5.02452 5.02386 -0.385729 -0.757338 1427860.0
21 -0.05795 8.83418e-05 1231.27 273.125 5.02456 5.02385 -0.346662 -0.662133 1427820.0
22 -0.05785 8.8341e-05 1231.27 273.124 5.02448 5.02377 -0.35304 -0.645694 1427750.0
23 -0.05775 8.83406e-05 1231.27 273.126 5.0245 5.02374 -0.342293 -0.629675 1427770.0
24 -0.05765 8.83421e-05 1231.27 273.125 5.02458 5.02396 -0.361891 -0.655321 1427910.0
25 -0.05755 8.83409e-05 1231.27 273.125 5.02451 5.02391 -0.365407 -0.667966 1427920.0
26 -0.05745 8.83418e-05 1231.27 273.124 5.02453 5.02388 -0.328229 -0.608008 1427890.0
27 -0.05735 8.83414e-05 1231.27 273.124 5.02451 5.02378 -0.345825 -0.613402 1427880.0
28 -0.05725 8.83417e-05 1231.27 273.127 5.02458 5.02394 -0.386908 -0.670109 1427990.0
29 -0.05715 8.83415e-05 1231.27 273.127 5.02457 5.02413 -0.427032 -0.757493 1428080.0
30 -0.05705 8.83425e-05 1231.27 273.125 5.02459 5.02405 -0.428144 -0.752275 1428040.0
31 -0.05695 8.83418e-05 1231.27 273.127 5.0246 5.02415 -0.445986 -0.798156 1428160.0
32 -0.05685 8.83416e-05 1231.27 273.128 5.02459 5.02428 -0.428258 -0.787055 1428220.0
33 -0.05675 8.83422e-05 1231.27 273.128 5.02463 5.02434 -0.428495 -0.793624 1428220.0
34 -0.05665 8.83416e-05 1231.27 273.125 5.02455 5.02422 -0.398011 -0.742079 1428170.0
35 -0.05655 8.83417e-05 1231.27 273.126 5.02456 5.02425 -0.432375 -0.801398 1428220.0
36 -0.05645 8.83422e-05 1231.27 273.126 5.02459 5.02421 -0.369637 -0.699638 1428190.0
37 -0.05635 8.83417e-05 1231.27 273.125 5.02455 5.02417 -0.397728 -0.720361 1428170.0
38 -0.05625 8.83419e-05 1231.27 273.128 5.02461 5.02433 -0.402278 -0.734415 1428350.0
39 -0.05615 8.83412e-05 1231.27 273.125 5.02452 5.02406 -0.379382 -0.687042 1428170.0
40 -0.05605 8.83421e-05 1231.27 273.126 5.02459 5.02419 -0.416152 -0.733169 1428270.0
41 -0.05595 8.83416e-05 1231.27 273.125 5.02455 5.0241 -0.390196 -0.67038 1428240.0
42 -0.05585 8.83423e-05 1231.27 273.126 5.02459 5.02416 -0.406995 -0.716128 1428290.0
43 -0.05575 8.8342e-05 1231.27 273.128 5.02461 5.02428 -0.43406 -0.796841 1428380.0
44 -0.05565 8.83421e-05 1231.27 273.128 5.02463 5.02425 -0.421058 -0.772774 1428380.0
45 -0.05555 8.83412e-05 1231.27 273.126 5.02453 5.024 -0.389672 -0.678346 1428230.0
46 -0.05545 8.83412e-05 1231.27 273.125 5.02451 5.02393 -0.370927 -0.632805 1428220.0
47 -0.05535 8.8342e-05 1231.27 273.124 5.02455 5.02395 -0.384779 -0.61967 1428240.0
48 -0.05525 8.83409e-05 1231.27 273.123 5.02447 5.02386 -0.378404 -0.593831 1428150.0
49 -0.05515 8.83411e-05 1231.28 273.123 5.02448 5.02383 -0.321534 -0.480477 1428120.0
50 -0.05505 8.83415e-05 1231.27 273.124 5.02451 5.02389 -0.342845 -0.537041 1428120.0
51 -0.05495 8.83409e-05 1231.27 273.121 5.02443 5.02385 -0.326917 -0.540913 1428190.0
52 -0.05485 8.83418e-05 1231.28 273.124 5.02453 5.02385 -0.315861 -0.518109 1428150.0
53 -0.05475 8.83408e-05 1231.28 273.12 5.02441 5.0237 -0.28179 -0.455327 1428020.0
54 -0.05465 8.83413e-05 1231.28 273.121 5.02445 5.02381 -0.29526 -0.468526 1428120.0
55 -0.05455 8.83407e-05 1231.27 273.121 5.02443 5.02383 -0.336755 -0.564207 1428200.0
56 -0.05445 8.83413e-05 1231.27 273.121 5.02445 5.02399 -0.263064 -0.42999 1428230.0
57 -0.05435 8.83413e-05 1231.28 273.12 5.02443 5.02391 -0.290787 -0.501965 1428190.0
58 -0.05425 8.83409e-05 1231.28 273.121 5.02442 5.02396 -0.261191 -0.478005 1428240.0
59 -0.05415 8.83405e-05 1231.27 273.122 5.02442 5.02396 -0.297209 -0.551074 1428260.0
60 -0.05405 8.8341e-05 1231.27 273.12 5.02443 5.02396 -0.279707 -0.508424 1428290.0
61 -0.05395 8.83409e-05 1231.28 273.12 5.02441 5.02393 -0.310033 -0.54189 1428310.0
62 -0.05385 8.83407e-05 1231.27 273.123 5.02446 5.024 -0.266455 -0.456872 1428330.0
63 -0.05375 8.83412e-05 1231.27 273.12 5.02442 5.02394 -0.295874 -0.533195 1428310.0
64 -0.05365 8.83408e-05 1231.27 273.121 5.02442 5.02398 -0.307767 -0.529037 1428380.0
65 -0.05355 8.83404e-05 1231.27 273.122 5.02441 5.02396 -0.317724 -0.539062 1428360.0
66 -0.05345 8.83409e-05 1231.27 273.121 5.02443 5.02394 -0.318804 -0.54684 1428320.0
67 -0.05335 8.83411e-05 1231.27 273.122 5.02446 5.02412 -0.327498 -0.592682 1428450.0
68 -0.05325 8.83414e-05 1231.27 273.122 5.02448 5.02411 -0.322146 -0.560537 1428440.0
69 -0.05315 8.8341e-05 1231.27 273.12 5.02442 5.02398 -0.284147 -0.514107 1428350.0
70 -0.05305 8.83404e-05 1231.28 273.121 5.0244 5.02391 -0.285991 -0.493801 1428330.0
71 -0.05295 8.83407e-05 1231.28 273.119 5.02439 5.02386 -0.279207 -0.478121 1428310.0
72 -0.05285 8.83409e-05 1231.27 273.121 5.02443 5.02396 -0.284242 -0.494911 1428410.0
73 -0.05275 8.83404e-05 1231.28 273.119 5.02436 5.02377 -0.267171 -0.409551 1428310.0
74 -0.05265 8.83409e-05 1231.27 273.121 5.02443 5.0239 -0.275769 -0.445036 1428350.0
75 -0.05255 8.83409e-05 1231.28 273.12 5.02442 5.02389 -0.246664 -0.404013 1428360.0
76 -0.05245 8.83411e-05 1231.28 273.119 5.0244 5.02382 -0.246646 -0.426592 1428370.0
77 -0.05235 8.83412e-05 1231.28 273.12 5.02442 5.02385 -0.23053 -0.376443 1428370.0
78 -0.05225 8.83406e-05 1231.28 273.116 5.02432 5.02381 -0.226286 -0.370094 1428360.0
79 -0.05215 8.83414e-05 1231.28 273.119 5.02442 5.02386 -0.269552 -0.424371 1428390.0
80 -0.05205 8.83407e-05 1231.28 273.119 5.02439 5.02389 -0.216971 -0.324307 1428380.0
81 -0.05195 8.83409e-05 1231.27 273.12 5.02441 5.02393 -0.209986 -0.349406 1428380.0
82 -0.05185 8.83411e-05 1231.28 273.118 5.02438 5.02383 -0.185725 -0.32094 1428270.0
83 -0.05175 8.83418e-05 1231.28 273.115 5.02437 5.02385 -0.170466 -0.284359 1428320.0
84 -0.05165 8.83408e-05 1231.27 273.118 5.02437 5.02386 -0.202851 -0.31369 1428340.0
85 -0.05155 8.83408e-05 1231.28 273.117 5.02436 5.02379 -0.187864 -0.258834 1428280.0
86 -0.05145 8.83416e-05 1231.28 273.12 5.02445 5.02388 -0.20609 -0.255541 1428340.0
87 -0.05135 8.83414e-05 1231.27 273.119 5.02442 5.02385 -0.252576 -0.295401 1428350.0
88 -0.05125 8.83417e-05 1231.28 273.119 5.02443 5.02396 -0.244336 -0.301442 1428370.0
89 -0.05115 8.83413e-05 1231.28 273.12 5.02444 5.02402 -0.245222 -0.278289 1428380.0
90 -0.05105 8.83418e-05 1231.28 273.12 5.02446 5.024 -0.248276 -0.295826 1428350.0
91 -0.05095 8.8341e-05 1231.27 273.121 5.02444 5.02408 -0.26066 -0.355574 1428430.0
92 -0.05085 8.83419e-05 1231.27 273.119 5.02445 5.02406 -0.24579 -0.283934 1428350.0
93 -0.05075 8.83413e-05 1231.27 273.119 5.02442 5.02398 -0.261539 -0.260446 1428350.0
94 -0.05065 8.83419e-05 1231.28 273.12 5.02447 5.02399 -0.283609 -0.290637 1428400.0
95 -0.05055 8.83422e-05 1231.28 273.12 5.02449 5.02405 -0.276667 -0.258705 1428450.0
96 -0.05045 8.83412e-05 1231.27 273.12 5.02443 5.02388 -0.256185 -0.252181 1428360.0
97 -0.05035 8.83416e-05 1231.27 273.118 5.02441 5.02391 -0.254969 -0.271351 1428350.0
98 -0.05025 8.83424e-05 1231.28 273.118 5.02446 5.02396 -0.233339 -0.263761 1428380.0
99 -0.05015 8.83416e-05 1231.27 273.119 5.02444 5.02408 -0.271654 -0.338853 1428510.0
100 -0.05005 8.83421e-05 1231.27 273.119 5.02447 5.02395 -0.228905 -0.285932 1428400.0
101 -0.04995 8.83417e-05 1231.28 273.117 5.0244 5.02387 -0.194325 -0.23557 1428340.0
102 -0.04985 8.83414e-05 1231.28 273.117 5.02438 5.02391 -0.172458 -0.187251 1428330.0
103 -0.04975 8.83415e-05 1231.27 273.117 5.02439 5.02391 -0.161967 -0.136362 1428310.0
104 -0.04965 8.83413e-05 1231.28 273.118 5.02439 5.0239 -0.17566 -0.189749 1428260.0
105 -0.04955 8.83416e-05 1231.28 273.117 5.0244 5.02397 -0.135117 -0.123318 1428290.0
106 -0.04945 8.83414e-05 1231.27 273.116 5.02437 5.02393 -0.149681 -0.207948 1428350.0
107 -0.04935 8.83419e-05 1231.27 273.119 5.02444 5.02405 -0.134091 -0.174471 1428390.0
108 -0.04925 8.83411e-05 1231.27 273.114 5.02431 5.0239 -0.122476 -0.164523 1428290.0
109 -0.04915 8.83415e-05 1231.27 273.117 5.02439 5.02402 -0.105108 -0.164971 1428310.0
110 -0.04905 8.83414e-05 1231.28 273.116 5.02436 5.02391 -0.105539 -0.165472 1428290.0
111 -0.04895 8.83413e-05 1231.27 273.116 5.02435 5.02389 -0.107717 -0.182027 1428280.0
112 -0.04885 8.83418e-05 1231.28 273.115 5.02437 5.0239 -0.124435 -0.178553 1428310.0
113 -0.04875 8.8342e-05 1231.28 273.118 5.02444 5.02405 -0.136993 -0.207591 1428380.0
114 -0.04865 8.83418e-05 1231.27 273.118 5.02442 5.0241 -0.151287 -0.265945 1428450.0
115 -0.04855 8.83419e-05 1231.27 273.119 5.02446 5.02423 -0.119935 -0.220599 1428500.0
116 -0.04845 8.83422e-05 1231.27 273.118 5.02444 5.0241 -0.131131 -0.254242 1428470.0
117 -0.04835 8.83417e-05 1231.28 273.116 5.02439 5.02402 -0.128334 -0.244844 1428430.0
118 -0.04825 8.83418e-05 1231.28 273.115 5.02436 5.02393 -0.104525 -0.185512 1428390.0
119 -0.04815 8.83417e-05 1231.28 273.119 5.02444 5.02397 -0.126773 -0.22522 1428420.0
120 -0.04805 8.83415e-05 1231.27 273.117 5.02438 5.02406 -0.148156 -0.320922 1428520.0
121 -0.04795 8.83426e-05 1231.27 273.118 5.02447 5.02418 -0.160266 -0.36963 1428590.0
122 -0.04785 8.83416e-05 1231.27 273.12 5.02444 5.02416 -0.13241 -0.294847 1428530.0
123 -0.04775 8.83409e-05 1231.28 273.116 5.02434 5.02394 -0.127375 -0.330454 1428450.0
124 -0.04765 8.83422e-05 1231.28 273.119 5.02446 5.02414 -0.123084 -0.311859 1428540.0
125 -0.04755 8.83414e-05 1231.28 273.116 5.02436 5.02393 -0.112056 -0.300326 1428420.0
126 -0.04745 8.83416e-05 1231.28 273.118 5.02441 5.02403 -0.123828 -0.344003 1428480.0
127 -0.04735 8.83414e-05 1231.27 273.119 5.02442 5.02415 -0.157463 -0.463967 1428580.0
128 -0.04725 8.83417e-05 1231.28 273.116 5.02438 5.02403 -0.120492 -0.382179 1428490.0
129 -0.04715 8.83416e-05 1231.28 273.116 5.02438 5.02404 -0.123734 -0.363737 1428460.0
130 -0.04705 8.83409e-05 1231.28 273.116 5.02433 5.02389 -0.0753346 -0.234771 1428340.0
131 -0.04695 8.83411e-05 1231.28 273.114 5.02432 5.02389 -0.113276 -0.292943 1428350.0
132 -0.04685 8.83418e-05 1231.28 273.116 5.02439 5.02398 -0.0712487 -0.252141 1428410.0
133 -0.04675 8.83417e-05 1231.28 273.114 5.02435 5.0239 -0.0462025 -0.19275 1428350.0
134 -0.04665 8.83416e-05 1231.28 273.115 5.02435 5.02399 -0.0459863 -0.224953 1428440.0
135 -0.04655 8.83414e-05 1231.27 273.115 5.02435 5.02402 -0.0843107 -0.311066 1428480.0
136 -0.04645 8.83412e-05 1231.27 273.115 5.02433 5.02411 -0.084632 -0.314695 1428510.0
137 -0.04635 8.83422e-05 1231.27 273.115 5.02439 5.02408 -0.058434 -0.305096 1428450.0
138 -0.04625 8.83425e-05 1231.27 273.115 5.02441 5.02413 -0.039357 -0.277999 1428450.0
139 -0.04615 8.83413e-05 1231.28 273.114 5.02431 5.02404 -0.0712163 -0.352998 1428450.0
140 -0.04605 8.83424e-05 1231.27 273.115 5.02441 5.02416 -0.107456 -0.401363 1428520.0
141 -0.04595 8.83423e-05 1231.27 273.116 5.02442 5.02421 -0.121681 -0.465618 1428570.0
142 -0.04585 8.83421e-05 1231.27 273.115 5.02439 5.0242 -0.104352 -0.35457 1428480.0
143 -0.04575 8.83418e-05 1231.27 273.114 5.02434 5.02413 -0.0804627 -0.326386 1428440.0
144 -0.04565 8.83429e-05 1231.27 273.114 5.02442 5.02419 -0.1183 -0.354192 1428520.0
145 -0.04555 8.83419e-05 1231.27 273.119 5.02445 5.02436 -0.13356 -0.369549 1428620.0
146 -0.04545 8.83423e-05 1231.27 273.116 5.02441 5.02426 -0.188097 -0.42332 1428630.0
147 -0.04535 8.83425e-05 1231.27 273.119 5.02448 5.0244 -0.178651 -0.396929 1428710.0
148 -0.04525 8.83423e-05 1231.27 273.117 5.02443 5.02422 -0.144443 -0.335297 1428600.0
149 -0.04515 8.83419e-05 1231.28 273.115 5.02437 5.02419 -0.133167 -0.349835 1428550.0
150 -0.04505 8.83425e-05 1231.27 273.117 5.02444 5.02428 -0.122447 -0.305013 1428590.0
151 -0.04495 8.83424e-05 1231.27 273.115 5.02441 5.02425 -0.159082 -0.343152 1428560.0
152 -0.04485 8.83427e-05 1231.27 273.116 5.02443 5.0243 -0.100727 -0.266846 1428550.0
153 -0.04475 8.83422e-05 1231.27 273.116 5.02441 5.02423 -0.125212 -0.29044 1428540.0
154 -0.04465 8.83423e-05 1231.27 273.115 5.02439 5.02426 -0.100847 -0.258082 1428520.0
155 -0.04455 8.83426e-05 1231.27 273.115 5.02441 5.02415 -0.0684911 -0.178395 1428450.0
156 -0.04445 8.83417e-05 1231.27 273.111 5.02428 5.02405 -0.0473102 -0.164222 1428380.0
157 -0.04435 8.83425e-05 1231.27 273.115 5.02442 5.02424 -0.063299 -0.196412 1428500.0
158 -0.04425 8.83415e-05 1231.27 273.114 5.02434 5.02416 -0.0576751 -0.154662 1428480.0
159 -0.04415 8.8342e-05 1231.27 273.112 5.02432 5.02417 -0.0832573 -0.239621 1428490.0
160 -0.04405 8.83424e-05 1231.27 273.115 5.02441 5.02429 -0.117698 -0.282217 1428590.0
161 -0.04395 8.83422e-05 1231.27 273.116 5.02441 5.0243 -0.136977 -0.302346 1428610.0
162 -0.04385 8.8342e-05 1231.27 273.117 5.02441 5.02433 -0.13613 -0.323372 1428620.0
163 -0.04375 8.83417e-05 1231.27 273.117 5.02439 5.02434 -0.144993 -0.36952 1428660.0
164 -0.04365 8.8342e-05 1231.27 273.115 5.02438 5.02431 -0.135262 -0.358644 1428610.0
165 -0.04355 8.8342e-05 1231.27 273.117 5.02442 5.02445 -0.149048 -0.380987 1428700.0
166 -0.04345 8.8342e-05 1231.27 273.118 5.02443 5.0245 -0.170348 -0.438504 1428750.0
167 -0.04335 8.83417e-05 1231.27 273.118 5.02442 5.02445 -0.171713 -0.450839 1428760.0
168 -0.04325 8.83421e-05 1231.27 273.115 5.02438 5.02435 -0.113475 -0.325169 1428620.0
169 -0.04315 8.83422e-05 1231.27 273.115 5.02438 5.02432 -0.144374 -0.330922 1428620.0
170 -0.04305 8.83423e-05 1231.27 273.118 5.02445 5.0244 -0.130857 -0.34248 1428660.0
171 -0.04295 8.83411e-05 1231.27 273.115 5.02432 5.02431 -0.132068 -0.309831 1428600.0
172 -0.04285 8.83425e-05 1231.27 273.115 5.0244 5.02426 -0.118503 -0.262401 1428560.0
173 -0.04275 8.83413e-05 1231.27 273.115 5.02435 5.02422 -0.0756559 -0.219827 1428570.0
174 -0.04265 8.8342e-05 1231.27 273.115 5.02438 5.02422 -0.115977 -0.30306 1428630.0
175 -0.04255 8.83419e-05 1231.27 273.115 5.02437 5.0243 -0.135272 -0.357405 1428710.0
176 -0.04245 8.83415e-05 1231.27 273.116 5.02438 5.02431 -0.147934 -0.370356 1428720.0
177 -0.04235 8.83418e-05 1231.27 273.118 5.02443 5.02419 -0.143314 -0.364945 1428690.0
178 -0.04225 8.83421e-05 1231.27 273.117 5.02442 5.0242 -0.139559 -0.360052 1428650.0
179 -0.04215 8.83414e-05 1231.27 273.117 5.02438 5.02413 -0.180729 -0.46213 1428650.0
180 -0.04205 8.83421e-05 1231.27 273.116 5.0244 5.02422 -0.137083 -0.378402 1428650.0
181 -0.04195 8.83414e-05 1231.27 273.118 5.02441 5.02425 -0.156456 -0.392815 1428660.0
182 -0.04185 8.83417e-05 1231.27 273.116 5.02438 5.02426 -0.158446 -0.399703 1428650.0
183 -0.04175 8.83414e-05 1231.27 273.118 5.02441 5.02436 -0.129407 -0.349566 1428730.0
184 -0.04165 8.83419e-05 1231.27 273.116 5.0244 5.02425 -0.121312 -0.325784 1428630.0
185 -0.04155 8.83411e-05 1231.27 273.115 5.02433 5.02415 -0.127992 -0.319225 1428610.0
186 -0.04145 8.83409e-05 1231.27 273.114 5.02429 5.0241 -0.0673999 -0.1854 1428550.0
187 -0.04135 8.83415e-05 1231.27 273.112 5.0243 5.02413 -0.0403143 -0.220534 1428490.0
188 -0.04125 8.83416e-05 1231.27 273.116 5.02438 5.02433 -0.0712458 -0.26746 1428660.0
189 -0.04115 8.83404e-05 1231.27 273.111 5.02422 5.024 -0.0482049 -0.221543 1428480.0
190 -0.04105 8.83412e-05 1231.27 273.112 5.02428 5.02413 -0.0532225 -0.211894 1428550.0
191 -0.04095 8.83412e-05 1231.27 273.113 5.0243 5.02404 -0.0490909 -0.181484 1428500.0
192 -0.04085 8.83412e-05 1231.27 273.112 5.02427 5.02392 -0.0560045 -0.162623 1428510.0
193 -0.04075 8.83405e-05 1231.27 273.115 5.0243 5.02398 -0.0649363 -0.153122 1428540.0
194 -0.04065 8.83411e-05 1231.28 273.112 5.02427 5.0239 -0.0860965 -0.184189 1428530.0
195 -0.04055 8.83412e-05 1231.27 273.115 5.02434 5.02405 -0.0934241 -0.192882 1428640.0
196 -0.04045 8.83409e-05 1231.27 273.112 5.02427 5.02397 -0.0710301 -0.150522 1428600.0
197 -0.04035 8.83405e-05 1231.27 273.113 5.02426 5.02391 -0.0933469 -0.143098 1428580.0
198 -0.04025 8.83407e-05 1231.27 273.113 5.02427 5.02394 -0.100603 -0.172346 1428570.0
199 -0.04015 8.83413e-05 1231.27 273.113 5.02431 5.02408 -0.109458 -0.178878 1428690.0
200 -0.04005 8.83415e-05 1231.27 273.115 5.02436 5.02412 -0.110228 -0.177824 1428660.0
201 -0.03995 8.83404e-05 1231.27 273.114 5.02427 5.02416 -0.0835159 -0.196895 1428680.0
202 -0.03985 8.83416e-05 1231.27 273.113 5.02431 5.02412 -0.0366541 -0.141527 1428600.0
203 -0.03975 8.83414e-05 1231.27 273.113 5.0243 5.02415 -0.026827 -0.0850716 1428610.0
204 -0.03965 8.83411e-05 1231.27 273.112 5.02427 5.02407 0.00190623 -0.0325525 1428520.0
205 -0.03955 8.83415e-05 1231.27 273.11 5.02426 5.024 0.000177485 -0.0440389 1428500.0
206 -0.03945 8.83413e-05 1231.27 273.114 5.02431 5.02412 0.00837985 -0.0638954 1428550.0
207 -0.03935 8.83417e-05 1231.27 273.112 5.0243 5.02405 -0.0140982 -0.0977001 1428540.0
208 -0.03925 8.83413e-05 1231.27 273.113 5.0243 5.02402 0.0131326 -0.0531585 1428530.0
209 -0.03915 8.83413e-05 1231.27 273.111 5.02427 5.024 0.00120385 -0.0345986 1428510.0
210 -0.03905 8.83415e-05 1231.27 273.113 5.02431 5.024 -0.0181338 -0.0748185 1428520.0
211 -0.03895 8.83415e-05 1231.27 273.111 5.02428 5.02397 -0.0115865 -0.0667584 1428520.0
212 -0.03885 8.8341e-05 1231.27 273.114 5.02431 5.02399 -0.0461171 -0.107052 1428600.0
213 -0.03875 8.83414e-05 1231.27 273.115 5.02435 5.02413 -0.0822617 -0.195497 1428680.0
214 -0.03865 8.83415e-05 1231.27 273.114 5.02433 5.02414 -0.0902128 -0.228082 1428670.0
215 -0.03855 8.83414e-05 1231.27 273.115 5.02434 5.02409 -0.0887376 -0.203708 1428670.0
216 -0.03845 8.83412e-05 1231.27 273.116 5.02435 5.02414 -0.0709379 -0.221298 1428710.0
217 -0.03835 8.83415e-05 1231.27 273.113 5.02432 5.02414 -0.0432088 -0.174281 1428660.0
218 -0.03825 8.83419e-05 1231.27 273.114 5.02435 5.02414 -0.0638627 -0.205922 1428640.0
219 -0.03815 8.83413e-05 1231.27 273.113 5.0243 5.02398 -0.055403 -0.179957 1428570.0
220 -0.03805 8.83412e-05 1231.27 273.114 5.02431 5.02412 -0.0785354 -0.201304 1428650.0
221 -0.03795 8.83421e-05 1231.27 273.114 5.02436 5.02412 -0.0401711 -0.160591 1428570.0
222 -0.03785 8.83418e-05 1231.27 273.113 5.02433 5.02406 -0.031442 -0.149675 1428560.0
223 -0.03775 8.8341e-05 1231.27 273.112 5.02426 5.02399 -0.0336619 -0.18028 1428510.0
224 -0.03765 8.83421e-05 1231.27 273.111 5.0243 5.02402 -0.0281414 -0.182973 1428510.0
225 -0.03755 8.83415e-05 1231.27 273.114 5.02434 5.02402 -0.0210154 -0.154986 1428510.0
226 -0.03745 8.83424e-05 1231.27 273.11 5.02431 5.0241 -0.0298693 -0.160274 1428540.0
227 -0.03735 8.83417e-05 1231.27 273.115 5.02436 5.02415 -0.0371682 -0.16065 1428560.0
228 -0.03725 8.83419e-05 1231.27 273.112 5.02432 5.02412 -0.0536669 -0.213856 1428560.0
229 -0.03715 8.83418e-05 1231.27 273.114 5.02435 5.02415 -0.0504896 -0.213555 1428530.0
230 -0.03705 8.83422e-05 1231.27 273.114 5.02437 5.02403 -0.0150331 -0.16558 1428490.0
231 -0.03695 8.83418e-05 1231.27 273.113 5.02432 5.02403 -0.0173329 -0.15591 1428490.0
232 -0.03685 8.83415e-05 1231.27 273.111 5.02428 5.02394 -0.0657741 -0.227594 1428490.0
233 -0.03675 8.83421e-05 1231.27 273.112 5.02434 5.02414 -0.0515907 -0.142038 1428530.0
234 -0.03665 8.83423e-05 1231.27 273.114 5.02438 5.02402 -0.0383345 -0.109868 1428440.0
235 -0.03655 8.83423e-05 1231.27 273.111 5.02433 5.02399 -0.0338323 -0.0754955 1428420.0
236 -0.03645 8.83423e-05 1231.27 273.113 5.02435 5.02405 -0.0130805 -0.0556928 1428440.0
237 -0.03635 8.83418e-05 1231.27 273.111 5.02429 5.02401 0.000757293 -0.0467877 1428400.0
238 -0.03625 8.83425e-05 1231.27 273.112 5.02436 5.02402 -0.0394855 -0.10034 1428410.0
239 -0.03615 8.83417e-05 1231.27 273.113 5.02433 5.02406 -0.0564031 -0.140923 1428520.0
240 -0.03605 8.83421e-05 1231.27 273.114 5.02438 5.02415 -0.0745443 -0.137421 1428570.0
241 -0.03595 8.83426e-05 1231.27 273.113 5.02438 5.02413 -0.0821554 -0.121366 1428540.0
242 -0.03585 8.83421e-05 1231.27 273.114 5.02437 5.02418 -0.091441 -0.133994 1428570.0
243 -0.03575 8.83425e-05 1231.27 273.112 5.02435 5.02422 -0.0761914 -0.108052 1428550.0
244 -0.03565 8.83417e-05 1231.27 273.114 5.02435 5.02437 -0.0987408 -0.18036 1428730.0
245 -0.03555 8.83425e-05 1231.27 273.116 5.02442 5.02439 -0.147494 -0.215884 1428780.0
246 -0.03545 8.83421e-05 1231.27 273.114 5.02436 5.02423 -0.115378 -0.137634 1428660.0
247 -0.03535 8.83428e-05 1231.27 273.115 5.02443 5.02429 -0.10065 -0.10724 1428680.0
248 -0.03525 8.83422e-05 1231.27 273.113 5.02436 5.02433 -0.102518 -0.0945739 1428670.0
249 -0.03515 8.83416e-05 1231.27 273.113 5.02431 5.02415 -0.0982635 -0.108386 1428580.0
250 -0.03505 8.83426e-05 1231.27 273.113 5.02438 5.02422 -0.0842156 -0.0467585 1428610.0
251 -0.03495 8.83421e-05 1231.27 273.112 5.02433 5.02411 -0.0821658 -0.0176561 1428500.0
252 -0.03485 8.83423e-05 1231.27 273.114 5.02439 5.02422 -0.0796732 -0.0189352 1428590.0
253 -0.03475 8.83422e-05 1231.27 273.114 5.02438 5.02427 -0.14273 -0.119004 1428640.0
254 -0.03465 8.83423e-05 1231.27 273.115 5.0244 5.0242 -0.143596 -0.145157 1428690.0
255 -0.03455 8.83426e-05 1231.27 273.112 5.02436 5.02413 -0.116429 -0.0861186 1428590.0
256 -0.03445 8.83421e-05 1231.27 273.116 5.02441 5.02421 -0.12754 -0.117621 1428670.0
257 -0.03435 8.83426e-05 1231.27 273.114 5.0244 5.02413 -0.136243 -0.108038 1428620.0
258 -0.03425 8.8342e-05 1231.27 273.113 5.02435 5.0241 -0.140132 -0.0992136 1428620.0
259 -0.03415 8.83424e-05 1231.27 273.116 5.02441 5.02422 -0.16071 -0.15997 1428690.0
260 -0.03405 8.83422e-05 1231.27 273.118 5.02444 5.02423 -0.153389 -0.164823 1428690.0
261 -0.03395 8.83415e-05 1231.27 273.116 5.02437 5.02419 -0.182472 -0.220709 1428730.0
262 -0.03385 8.83423e-05 1231.27 273.119 5.02448 5.0244 -0.20718 -0.283526 1428910.0
263 -0.03375 8.83418e-05 1231.27 273.116 5.02439 5.02443 -0.218334 -0.301249 1428860.0
264 -0.03365 8.83418e-05 1231.27 273.116 5.02439 5.02436 -0.197061 -0.301797 1428850.0
265 -0.03355 8.83421e-05 1231.27 273.118 5.02445 5.02447 -0.221104 -0.363429 1428920.0
266 -0.03345 8.83419e-05 1231.27 273.12 5.02447 5.02448 -0.232137 -0.352818 1428930.0
267 -0.03335 8.83416e-05 1231.27 273.12 5.02444 5.02451 -0.225708 -0.341454 1428910.0
268 -0.03325 8.8342e-05 1231.27 273.119 5.02445 5.02458 -0.230271 -0.369099 1428960.0
269 -0.03315 8.83414e-05 1231.27 273.12 5.02444 5.02455 -0.191328 -0.284245 1428960.0
270 -0.03305 8.83423e-05 1231.27 273.119 5.02448 5.02462 -0.250305 -0.392478 1429030.0
271 -0.03295 8.83419e-05 1231.27 273.12 5.02446 5.02469 -0.233648 -0.388178 1429070.0
272 -0.03285 8.83422e-05 1231.26 273.119 5.02447 5.02476 -0.242305 -0.389517 1429110.0
273 -0.03275 8.83424e-05 1231.26 273.122 5.02454 5.02482 -0.283009 -0.440546 1429190.0
274 -0.03265 8.83423e-05 1231.26 273.121 5.02451 5.02485 -0.299961 -0.466729 1429230.0
275 -0.03255 8.83429e-05 1231.27 273.123 5.02457 5.02491 -0.286918 -0.47252 1429210.0
276 -0.03245 8.83416e-05 1231.26 273.12 5.02445 5.02473 -0.257705 -0.42299 1429170.0
277 -0.03235 8.83425e-05 1231.26 273.12 5.0245 5.02471 -0.250541 -0.394183 1429150.0
278 -0.03225 8.83424e-05 1231.27 273.119 5.02449 5.02462 -0.250204 -0.375657 1429100.0
279 -0.03215 8.83422e-05 1231.27 273.12 5.02448 5.02465 -0.28136 -0.425998 1429170.0
280 -0.03205 8.83424e-05 1231.27 273.121 5.02452 5.02464 -0.291191 -0.412954 1429170.0
281 -0.03195 8.83419e-05 1231.27 273.12 5.02447 5.02457 -0.250263 -0.344617 1429120.0
282 -0.03185 8.83427e-05 1231.26 273.12 5.02451 5.02465 -0.223931 -0.269716 1429130.0
283 -0.03175 8.83425e-05 1231.27 273.12 5.0245 5.02452 -0.274845 -0.339901 1429090.0
284 -0.03165 8.83422e-05 1231.27 273.12 5.02448 5.02452 -0.242806 -0.291427 1429170.0
285 -0.03155 8.83423e-05 1231.27 273.122 5.02453 5.02456 -0.275758 -0.376919 1429210.0
286 -0.03145 8.83418e-05 1231.27 273.12 5.02445 5.02446 -0.281113 -0.37752 1429190.0
287 -0.03135 8.83424e-05 1231.27 273.122 5.02453 5.0245 -0.284573 -0.423731 1429220.0
288 -0.03125 8.83419e-05 1231.27 273.121 5.02448 5.02449 -0.297717 -0.409714 1429270.0
289 -0.03115 8.83416e-05 1231.27 273.123 5.02451 5.0245 -0.301435 -0.387225 1429300.0
290 -0.03105 8.83419e-05 1231.27 273.121 5.02449 5.02448 -0.299257 -0.417987 1429300.0
291 -0.03095 8.8342e-05 1231.27 273.121 5.0245 5.02453 -0.280627 -0.391427 1429250.0
292 -0.03085 8.83419e-05 1231.27 273.121 5.02449 5.02463 -0.249595 -0.370725 1429300.0
293 -0.03075 8.83421e-05 1231.27 273.119 5.02446 5.02457 -0.232387 -0.331571 1429260.0
294 -0.03065 8.83414e-05 1231.27 273.12 5.02445 5.02451 -0.258781 -0.333732 1429320.0
295 -0.03055 8.83415e-05 1231.27 273.122 5.02448 5.02458 -0.303885 -0.375404 1429400.0
296 -0.03045 8.83424e-05 1231.27 273.12 5.0245 5.02465 -0.301432 -0.387968 1429370.0
297 -0.03035 8.83417e-05 1231.27 273.122 5.0245 5.02467 -0.280861 -0.370305 1429420.0
298 -0.03025 8.83422e-05 1231.27 273.123 5.02454 5.02468 -0.305517 -0.401345 1429470.0
299 -0.03015 8.8342e-05 1231.27 273.123 5.02453 5.02469 -0.316529 -0.407566 1429500.0
300 -0.03005 8.83421e-05 1231.27 273.121 5.0245 5.02464 -0.35666 -0.469336 1429580.0
301 -0.02995 8.83415e-05 1231.27 273.123 5.0245 5.02459 -0.365717 -0.498426 1429610.0
302 -0.02985 8.83426e-05 1231.27 273.125 5.02459 5.0247 -0.425999 -0.603646 1429810.0
303 -0.02975 8.83419e-05 1231.27 273.127 5.02459 5.02475 -0.438325 -0.619487 1429860.0
304 -0.02965 8.83424e-05 1231.27 273.123 5.02455 5.02473 -0.393964 -0.57949 1429750.0
305 -0.02955 8.83415e-05 1231.27 273.124 5.02452 5.0247 -0.405104 -0.584815 1429850.0
306 -0.02945 8.83421e-05 1231.27 273.127 5.0246 5.02482 -0.424006 -0.605321 1429920.0
307 -0.02935 8.83417e-05 1231.26 273.125 5.02455 5.02482 -0.445436 -0.636028 1429940.0
308 -0.02925 8.83424e-05 1231.26 273.126 5.0246 5.02489 -0.463199 -0.706377 1430040.0
309 -0.02915 8.83417e-05 1231.26 273.128 5.0246 5.02494 -0.453604 -0.665542 1430110.0
310 -0.02905 8.83417e-05 1231.26 273.126 5.02456 5.02481 -0.485279 -0.655885 1430100.0
311 -0.02895 8.83421e-05 1231.27 273.128 5.02462 5.02491 -0.531616 -0.664416 1430220.0
312 -0.02885 8.83417e-05 1231.27 273.13 5.02463 5.02498 -0.51362 -0.650656 1430240.0
313 -0.02875 8.83419e-05 1231.26 273.128 5.02461 5.02482 -0.50078 -0.662072 1430190.0
314 -0.02865 8.8342e-05 1231.26 273.13 5.02465 5.02507 -0.555409 -0.781965 1430420.0
315 -0.02855 8.83412e-05 1231.26 273.13 5.02461 5.02495 -0.587255 -0.823618 1430440.0
316 -0.02845 8.83415e-05 1231.27 273.132 5.02467 5.02508 -0.615755 -0.869241 1430610.0
317 -0.02835 8.83414e-05 1231.26 273.132 5.02466 5.02499 -0.61671 -0.882395 1430600.0
318 -0.02825 8.83415e-05 1231.26 273.13 5.02463 5.02499 -0.583368 -0.810707 1430620.0
319 -0.02815 8.83427e-05 1231.26 273.132 5.02473 5.0251 -0.610021 -0.849503 1430770.0
320 -0.02805 8.83418e-05 1231.26 273.129 5.02463 5.025 -0.593613 -0.834892 1430750.0
321 -0.02795 8.8341e-05 1231.26 273.132 5.02463 5.02493 -0.595914 -0.844589 1430750.0
322 -0.02785 8.83422e-05 1231.26 273.131 5.02469 5.02503 -0.627236 -0.888179 1430920.0
323 -0.02775 8.83413e-05 1231.26 273.132 5.02466 5.02514 -0.631189 -0.89848 1431030.0
324 -0.02765 8.83419e-05 1231.26 273.133 5.0247 5.02512 -0.671138 -0.974073 1431090.0
325 -0.02755 8.83416e-05 1231.26 273.135 5.02473 5.02512 -0.710358 -1.00109 1431170.0
326 -0.02745 8.83421e-05 1231.26 273.137 5.02478 5.02515 -0.734704 -1.03573 1431330.0
327 -0.02735 8.83421e-05 1231.26 273.134 5.02474 5.02509 -0.706493 -0.956906 1431300.0
328 -0.02725 8.8342e-05 1231.26 273.137 5.02479 5.02517 -0.767066 -1.02814 1431500.0
329 -0.02715 8.83419e-05 1231.26 273.137 5.02478 5.02508 -0.727557 -0.992461 1431430.0
330 -0.02705 8.8342e-05 1231.26 273.136 5.02477 5.02502 -0.711396 -0.965445 1431430.0
331 -0.02695 8.83421e-05 1231.26 273.137 5.02478 5.02506 -0.7843 -1.07445 1431630.0
332 -0.02685 8.8342e-05 1231.26 273.139 5.02482 5.02513 -0.782418 -1.04086 1431740.0
333 -0.02675 8.83419e-05 1231.26 273.136 5.02476 5.02507 -0.810571 -1.08419 1431760.0
334 -0.02665 8.83425e-05 1231.26 273.142 5.0249 5.02531 -0.805393 -1.08726 1431990.0
335 -0.02655 8.83418e-05 1231.26 273.139 5.02481 5.0253 -0.88374 -1.17587 1432080.0
336 -0.02645 8.83418e-05 1231.26 273.144 5.0249 5.0254 -0.913824 -1.22852 1432310.0
337 -0.02635 8.83424e-05 1231.26 273.144 5.02493 5.0255 -0.971224 -1.31811 1432520.0
338 -0.02625 8.83429e-05 1231.26 273.146 5.02499 5.02563 -1.05221 -1.46146 1432760.0
339 -0.02615 8.83421e-05 1231.25 273.148 5.025 5.02557 -1.1261 -1.49855 1432960.0
340 -0.02605 8.83421e-05 1231.26 273.15 5.02502 5.02554 -1.11654 -1.53776 1433000.0
341 -0.02595 8.83424e-05 1231.26 273.151 5.02506 5.02572 -1.17053 -1.62334 1433210.0
342 -0.02585 8.83426e-05 1231.25 273.151 5.02508 5.02573 -1.20498 -1.68452 1433340.0
343 -0.02575 8.83423e-05 1231.26 273.151 5.02507 5.02563 -1.22016 -1.69477 1433410.0
344 -0.02565 8.83425e-05 1231.26 273.153 5.02511 5.02568 -1.28733 -1.8248 1433600.0
345 -0.02555 8.83421e-05 1231.26 273.158 5.02517 5.02575 -1.35508 -1.91143 1433940.0
346 -0.02545 8.83424e-05 1231.26 273.157 5.02518 5.02569 -1.37617 -1.98834 1433980.0