TITLE = "DSMC"
VARIABLES = "ID" "X" "rho" "v1" "Ttrans" "p" "p1" "q1" "mv1v1v1" "mvvv1v1"
ZONE T="Ma=4.0_inv", I=900, J=1, K=1, F=POINT
900 -0.02995 0.000297554 -365.551 1600.72 99.1862 99.1904 1.5851 6.40481 165319000.0
899 -0.02985 0.000297603 -365.496 1600.7 99.2013 99.1978 -5.34258 -6.73759 165327000.0
898 -0.02975 0.000297605 -365.49 1600.66 99.1994 99.1973 -7.23755 -6.66007 165325000.0
897 -0.02965 0.000297601 -365.496 1600.75 99.2036 99.1972 -4.12527 -5.78993 165329000.0
896 -0.02955 0.000297627 -365.464 1600.72 99.2107 99.2001 -7.48206 -13.0431 165333000.0
895 -0.02945 0.0002976 -365.499 1600.77 99.2047 99.1967 -2.60165 -5.76188 165329000.0
894 -0.02935 0.00029759 -365.51 1600.74 99.1994 99.1953 -2.06533 -4.79712 165327000.0
893 -0.02925 0.000297563 -365.54 1600.75 99.1909 99.1913 0.721168 2.74339 165321000.0
892 -0.02915 0.000297594 -365.505 1600.72 99.1998 99.1977 -4.24421 -6.16912 165331000.0
891 -0.02905 0.000297593 -365.506 1600.72 99.1992 99.1966 -3.51162 -4.80756 165330000.0
890 -0.02895 0.000297606 -365.486 1600.65 99.1994 99.1967 -8.18219 -9.86522 165326000.0
889 -0.02885 0.000297614 -365.48 1600.68 99.2036 99.1994 -7.74618 -11.2542 165332000.0
888 -0.02875 0.000297618 -365.474 1600.69 99.2058 99.1995 -7.49616 -11.3094 165332000.0
887 -0.02865 0.000297609 -365.485 1600.71 99.2037 99.199 -6.22719 -9.27372 165333000.0
886 -0.02855 0.000297589 -365.507 1600.68 99.1956 99.1954 -4.73508 -2.81037 165329000.0
885 -0.02845 0.000297578 -365.522 1600.73 99.1945 99.1948 -1.98706 1.06327 165329000.0
884 -0.02835 0.000297588 -365.511 1600.76 99.1998 99.195 -2.24787 -3.72836 165327000.0
883 -0.02825 0.000297569 -365.532 1600.76 99.1937 99.1924 -0.15558 0.433887 165327000.0
882 -0.02815 0.00029757 -365.535 1600.8 99.1963 99.1933 1.1397 0.314211 165329000.0
881 -0.02805 0.000297564 -365.541 1600.72 99.1897 99.1919 0.950293 4.99135 165325000.0
880 -0.02795 0.000297593 -365.505 1600.74 99.2006 99.1954 -2.21677 -3.24675 165331000.0
879 -0.02785 0.000297579 -365.522 1600.8 99.1998 99.1937 1.1051 -0.369852 165334000.0
878 -0.02775 0.000297581 -365.523 1600.84 99.2025 99.1925 2.07047 -1.09281 165333000.0
877 -0.02765 0.000297574 -365.526 1600.8 99.1979 99.1929 0.655215 0.845239 165333000.0
876 -0.02755 0.000297567 -365.537 1600.86 99.199 99.1921 3.8707 2.97709 165332000.0
875 -0.02745 0.000297553 -365.556 1600.92 99.198 99.1894 7.92073 8.32382 165332000.0
874 -0.02735 0.000297587 -365.511 1600.88 99.2073 99.1952 2.96496 0.481875 165341000.0
873 -0.02725 0.000297597 -365.503 1600.88 99.2106 99.1976 1.20855 -1.49238 165345000.0
872 -0.02715 0.000297585 -365.512 1600.89 99.2072 99.194 2.66554 0.0165273 165340000.0
871 -0.02705 0.000297587 -365.508 1600.78 99.2011 99.1951 -1.1093 0.0925107 165337000.0
870 -0.02695 0.000297592 -365.504 1600.76 99.2014 99.1966 -1.96156 -0.718829 165342000.0
869 -0.02685 0.000297591 -365.503 1600.8 99.203 99.1957 -1.21392 -0.898349 165340000.0
868 -0.02675 0.000297618 -365.468 1600.89 99.2179 99.2007 -1.33328 -8.31245 165350000.0
867 -0.02665 0.000297599 -365.493 1600.84 99.2083 99.1969 -1.11485 -2.35555 165342000.0
866 -0.02655 0.000297605 -365.485 1600.8 99.2083 99.1983 -3.09107 -4.78927 165341000.0
865 -0.02645 0.000297594 -365.495 1600.87 99.2089 99.1966 1.13818 -1.37408 165339000.0
864 -0.02635 0.000297598 -365.491 1600.82 99.2069 99.1973 -2.11138 -5.07896 165338000.0
863 -0.02625 0.000297573 -365.523 1600.74 99.1935 99.1948 -1.98017 2.09247 165335000.0
862 -0.02615 0.000297562 -365.533 1600.78 99.1924 99.1928 1.34507 5.79935 165329000.0
861 -0.02605 0.00029757 -365.524 1600.76 99.1938 99.1944 -0.390414 3.23121 165330000.0
860 -0.02595 0.000297585 -365.502 1600.73 99.197 99.1964 -3.74168 -1.4326 165331000.0
859 -0.02585 0.000297592 -365.495 1600.75 99.2006 99.1971 -3.59582 -2.48982 165332000.0
858 -0.02575 0.000297586 -365.504 1600.63 99.191 99.1964 -7.20841 -0.882497 165328000.0
857 -0.02565 0.000297588 -365.503 1600.74 99.1988 99.1979 -2.83291 -0.128624 165335000.0
856 -0.02555 0.000297613 -365.469 1600.69 99.204 99.2005 -8.4748 -8.12752 165337000.0
855 -0.02545 0.000297611 -365.473 1600.7 99.2037 99.2003 -7.68356 -6.34651 165338000.0
854 -0.02535 0.000297605 -365.48 1600.69 99.2013 99.1989 -7.54051 -5.63548 165336000.0
853 -0.02525 0.000297613 -365.473 1600.74 99.2066 99.2004 -6.01241 -6.05186 165340000.0
852 -0.02515 0.000297595 -365.491 1600.69 99.1976 99.1964 -5.96346 -2.00079 165334000.0
851 -0.02505 0.000297601 -365.484 1600.74 99.2028 99.1988 -5.94035 -4.62024 165340000.0
850 -0.02495 0.000297602 -365.487 1600.77 99.2049 99.1988 -4.52574 -7.22288 165341000.0
849 -0.02485 0.000297601 -365.487 1600.76 99.2043 99.1979 -5.13636 -8.85933 165339000.0
848 -0.02475 0.000297596 -365.493 1600.76 99.2023 99.1985 -4.26348 -5.38263 165341000.0
847 -0.02465 0.000297585 -365.507 1600.73 99.1969 99.1964 -3.62276 -2.49819 165339000.0
846 -0.02455 0.000297582 -365.51 1600.8 99.2005 99.196 -0.238304 -1.39758 165338000.0
845 -0.02445 0.000297583 -365.509 1600.83 99.2025 99.1968 0.244984 -3.51099 165341000.0
844 -0.02435 0.00029755 -365.549 1600.85 99.1929 99.1912 5.00137 6.23446 165334000.0
843 -0.02425 0.000297544 -365.557 1600.82 99.1891 99.1908 5.12914 7.27662 165332000.0
842 -0.02415 0.000297553 -365.549 1600.83 99.1927 99.1921 3.9035 3.10973 165334000.0
841 -0.02405 0.000297555 -365.542 1600.83 99.1931 99.1921 3.48889 1.57321 165333000.0
840 -0.02395 0.000297553 -365.546 1600.76 99.1882 99.1929 1.1484 2.9298 165330000.0
839 -0.02385 0.000297567 -365.529 1600.76 99.1929 99.1948 -0.806301 -1.77243 165334000.0
838 -0.02375 0.000297581 -365.509 1600.74 99.1965 99.1952 -1.68165 -5.93012 165335000.0
837 -0.02365 0.000297593 -365.498 1600.78 99.203 99.1976 -2.13603 -8.60762 165339000.0
836 -0.02355 0.000297582 -365.511 1600.79 99.1996 99.1967 -1.62758 -5.01492 165339000.0
835 -0.02345 0.000297584 -365.507 1600.78 99.1999 99.1963 -1.80947 -5.51338 165336000.0
834 -0.02335 0.000297574 -365.519 1600.83 99.1999 99.1943 0.654855 -4.19234 165332000.0
833 -0.02325 0.000297579 -365.515 1600.84 99.2016 99.1962 0.876787 -4.86515 165333000.0
832 -0.02315 0.00029757 -365.525 1600.85 99.1994 99.1938 1.50172 -3.53702 165328000.0
831 -0.02305 0.000297575 -365.52 1600.82 99.1994 99.1957 0.881685 -2.52962 165331000.0
830 -0.02295 0.000297568 -365.529 1600.76 99.1935 99.1941 -0.0368323 0.709031 165328000.0
829 -0.02285 0.000297568 -365.528 1600.85 99.1986 99.1939 2.04438 0.242045 165327000.0
828 -0.02275 0.000297568 -365.53 1600.83 99.1974 99.1931 2.2011 2.12591 165324000.0
827 -0.02265 0.000297569 -365.528 1600.74 99.1922 99.1939 -0.350525 0.46299 165323000.0
826 -0.02255 0.00029757 -365.526 1600.74 99.1923 99.1946 -0.91144 -0.0495921 165326000.0
825 -0.02245 0.000297601 -365.488 1600.66 99.1982 99.199 -7.39915 -9.76772 165327000.0
824 -0.02235 0.000297582 -365.512 1600.73 99.1961 99.1967 -2.3682 -2.86185 165328000.0
823 -0.02225 0.00029757 -365.528 1600.73 99.1918 99.1946 -1.2432 2.09579 165328000.0
822 -0.02215 0.000297562 -365.535 1600.81 99.194 99.194 2.14348 5.54471 165333000.0
821 -0.02205 0.000297574 -365.523 1600.77 99.1957 99.1945 -0.870438 2.11877 165329000.0
820 -0.02195 0.000297599 -365.488 1600.72 99.2013 99.1982 -5.28542 -6.08505 165333000.0
819 -0.02185 0.000297603 -365.484 1600.77 99.2055 99.1992 -4.05663 -6.84852 165336000.0
818 -0.02175 0.000297591 -365.498 1600.78 99.2023 99.1966 -1.97301 -3.38956 165332000.0
817 -0.02165 0.000297596 -365.493 1600.73 99.2009 99.198 -4.33556 -3.8089 165334000.0
816 -0.02155 0.000297611 -365.473 1600.72 99.2048 99.2003 -6.9025 -7.46412 165336000.0
815 -0.02145 0.000297601 -365.482 1600.8 99.2067 99.199 -2.9029 -4.13859 165336000.0
814 -0.02135 0.000297617 -365.465 1600.76 99.2097 99.2009 -6.26805 -10.5551 165339000.0
813 -0.02125 0.000297594 -365.491 1600.79 99.2041 99.1989 -3.44871 -3.08193 165338000.0
812 -0.02115 0.000297595 -365.49 1600.76 99.2024 99.1974 -4.22162 -2.32735 165334000.0
811 -0.02105 0.000297587 -365.503 1600.87 99.2063 99.1977 0.585546 1.05517 165341000.0
810 -0.02095 0.000297594 -365.492 1600.78 99.2035 99.1982 -2.49042 -2.66026 165340000.0
809 -0.02085 0.000297588 -365.498 1600.83 99.2045 99.196 -0.336948 -2.76686 165335000.0
808 -0.02075 0.000297596 -365.49 1600.78 99.2039 99.1991 -3.40164 -6.22303 165340000.0
807 -0.02065 0.000297592 -365.494 1600.85 99.2065 99.1973 -0.59103 -3.31274 165338000.0
806 -0.02055 0.000297576 -365.513 1600.81 99.1989 99.1964 0.798071 1.80677 165339000.0
805 -0.02045 0.000297586 -365.501 1600.82 99.2033 99.1973 -1.12656 -4.43114 165340000.0
804 -0.02035 0.000297573 -365.516 1600.81 99.1983 99.1958 -0.0859212 1.39825 165337000.0
803 -0.02025 0.000297559 -365.534 1600.84 99.1948 99.194 3.16031 5.87343 165336000.0
802 -0.02015 0.00029756 -365.531 1600.81 99.1938 99.1949 1.31087 6.03936 165337000.0
801 -0.02005 0.000297566 -365.523 1600.87 99.1995 99.1943 3.68134 5.16417 165337000.0
800 -0.01995 0.000297559 -365.531 1600.88 99.1976 99.1948 4.51484 6.44423 165342000.0
799 -0.01985 0.000297584 -365.502 1600.85 99.2042 99.1981 0.250628 -0.110043 165345000.0
798 -0.01975 0.000297574 -365.516 1600.91 99.2044 99.1964 3.41669 3.48168 165344000.0
797 -0.01965 0.000297579 -365.509 1600.93 99.2076 99.1973 3.23503 0.779448 165347000.0
796 -0.01955 0.000297596 -365.486 1600.84 99.2078 99.1985 -0.943245 -4.91712 165344000.0
795 -0.01945 0.000297601 -365.482 1600.81 99.2075 99.1991 -1.7377 -7.68116 165346000.0
794 -0.01935 0.000297581 -365.507 1600.86 99.204 99.1977 1.13882 -2.4365 165346000.0
793 -0.01925 0.000297577 -365.511 1600.86 99.2024 99.1957 2.86085 -0.274636 165344000.0
792 -0.01915 0.000297585 -365.501 1600.88 99.2065 99.1978 1.77282 -2.6515 165348000.0
791 -0.01905 0.000297574 -365.512 1600.86 99.2015 99.1958 2.24132 0.251985 165344000.0
790 -0.01895 0.000297564 -365.526 1600.83 99.1965 99.1953 2.15402 3.084 165345000.0
789 -0.01885 0.000297574 -365.515 1600.87 99.202 99.1975 1.77915 1.16901 165347000.0
788 -0.01875 0.000297598 -365.486 1600.93 99.2139 99.1996 1.00448 -5.6724 165349000.0
787 -0.01865 0.000297606 -365.472 1600.85 99.212 99.2001 -2.07373 -6.51622 165347000.0
786 -0.01855 0.000297597 -365.49 1600.84 99.2078 99.1999 -1.4875 -2.93227 165343000.0
785 -0.01845 0.000297584 -365.5 1600.82 99.2023 99.1983 -0.323935 0.0996909 165340000.0
784 -0.01835 0.00029758 -365.508 1600.83 99.2016 99.1972 0.139046 0.168518 165339000.0
783 -0.01825 0.000297596 -365.489 1600.8 99.2048 99.1994 -2.69449 -3.33705 165339000.0
782 -0.01815 0.000297583 -365.505 1600.86 99.2043 99.1969 0.897958 1.6765 165337000.0
781 -0.01805 0.000297584 -365.505 1600.84 99.2036 99.1986 0.0170877 2.01162 165338000.0
780 -0.01795 0.000297583 -365.508 1600.77 99.1987 99.1975 -1.50835 2.17824 165336000.0
779 -0.01785 0.000297605 -365.478 1600.8 99.2083 99.1999 -4.13725 -5.64242 165337000.0
778 -0.01775 0.000297598 -365.487 1600.82 99.2068 99.1996 -3.33705 -3.89916 165338000.0
777 -0.01765 0.000297574 -365.516 1600.9 99.2041 99.1962 3.55492 3.34599 165340000.0
776 -0.01755 0.000297579 -365.511 1600.85 99.2023 99.1976 0.903285 0.799164 165341000.0
775 -0.01745 0.000297559 -365.533 1600.88 99.1977 99.1947 3.76441 5.4799 165338000.0
774 -0.01735 0.000297558 -365.535 1600.83 99.1943 99.1945 2.08372 6.13442 165338000.0
773 -0.01725 0.000297578 -365.509 1600.84 99.2014 99.1974 0.35887 1.8685 165342000.0
772 -0.01715 0.00029758 -365.505 1600.89 99.2051 99.1972 1.43799 2.38331 165344000.0
771 -0.01705 0.000297571 -365.519 1600.82 99.1977 99.1966 0.3647 3.37006 165340000.0
770 -0.01695 0.000297573 -365.515 1600.9 99.2034 99.1964 3.17025 4.52353 165342000.0
769 -0.01685 0.000297573 -365.517 1600.88 99.2027 99.1949 2.1104 1.9463 165339000.0
768 -0.01675 0.000297568 -365.522 1600.89 99.2016 99.1948 3.80178 3.04109 165339000.0
767 -0.01665 0.000297575 -365.514 1600.93 99.2066 99.1972 3.896 1.7157 165344000.0
766 -0.01655 0.000297582 -365.505 1600.89 99.2057 99.1976 2.32778 1.34176 165341000.0
765 -0.01645 0.000297561 -365.531 1600.97 99.2036 99.194 6.93657 5.26532 165340000.0
764 -0.01635 0.000297568 -365.523 1600.88 99.2006 99.1959 2.77519 3.7521 165342000.0
763 -0.01625 0.000297587 -365.5 1600.89 99.2076 99.1971 0.522625 -2.66103 165341000.0
762 -0.01615 0.000297591 -365.493 1600.81 99.2043 99.1977 -2.35999 -3.65517 165339000.0
761 -0.01605 0.000297578 -365.511 1600.87 99.203 99.196 0.8578 0.333353 165340000.0
760 -0.01595 0.00029759 -365.495 1600.91 99.2098 99.1994 1.02765 -1.37656 165346000.0
759 -0.01585 0.000297575 -365.516 1600.85 99.2012 99.1955 1.06653 2.8322 165339000.0
758 -0.01575 0.00029758 -365.508 1600.89 99.2051 99.1969 1.53478 1.48734 165342000.0
757 -0.01565 0.000297586 -365.501 1600.86 99.2051 99.1971 -0.358876 -0.687541 165338000.0
756 -0.01555 0.000297558 -365.537 1600.9 99.1985 99.193 4.75343 8.56547 165337000.0
755 -0.01545 0.000297569 -365.521 1600.97 99.2066 99.1946 5.59324 4.20108 165341000.0
754 -0.01535 0.000297556 -365.537 1600.91 99.1986 99.1916 5.38107 8.74542 165335000.0
753 -0.01525 0.000297588 -365.498 1600.93 99.2108 99.199 2.14894 -0.207581 165346000.0
752 -0.01515 0.000297569 -365.521 1600.89 99.2017 99.1948 3.55448 6.26965 165339000.0
751 -0.01505 0.000297589 -365.499 1600.85 99.2056 99.1967 -1.50374 -1.51276 165336000.0
750 -0.01495 0.000297579 -365.511 1600.81 99.2005 99.1961 -0.286718 2.07093 165334000.0
749 -0.01485 0.000297567 -365.527 1600.81 99.1961 99.1946 -0.109139 3.41343 165333000.0
748 -0.01475 0.000297574 -365.513 1600.79 99.1975 99.1953 -0.459347 2.61288 165333000.0
747 -0.01465 0.000297583 -365.508 1600.74 99.1968 99.1955 -3.94479 -1.17134 165330000.0
746 -0.01455 0.000297575 -365.515 1600.79 99.1976 99.194 -1.16881 1.40467 165331000.0
745 -0.01445 0.000297565 -365.526 1600.83 99.1965 99.1939 1.38274 4.29678 165334000.0
744 -0.01435 0.000297552 -365.544 1600.86 99.1944 99.1913 3.94125 8.05841 165330000.0
743 -0.01425 0.000297531 -365.57 1600.96 99.1935 99.1878 10.3099 12.6478 165330000.0
742 -0.01415 0.000297555 -365.542 1600.99 99.2029 99.1921 8.25405 5.56202 165332000.0
741 -0.01405 0.000297569 -365.526 1600.99 99.208 99.1936 7.223 1.41847 165333000.0
740 -0.01395 0.000297543 -365.556 1600.96 99.1971 99.1896 8.66113 8.4725 165324000.0
739 -0.01385 0.000297555 -365.541 1600.91 99.1983 99.1913 5.38978 5.19258 165323000.0
738 -0.01375 0.000297572 -365.521 1600.95 99.2061 99.1938 5.16878 1.16578 165327000.0
737 -0.01365 0.000297558 -365.538 1600.95 99.2016 99.1916 5.5736 4.45077 165322000.0
736 -0.01355 0.000297551 -365.549 1600.93 99.1983 99.1908 7.73784 8.93744 165321000.0
735 -0.01345 0.000297564 -365.531 1600.87 99.1985 99.1923 3.37296 4.81377 165319000.0
734 -0.01335 0.000297557 -365.539 1600.9 99.1979 99.1906 5.38757 6.96809 165319000.0
733 -0.01325 0.000297563 -365.537 1600.92 99.2019 99.1921 4.7846 3.20653 165322000.0
732 -0.01315 0.000297563 -365.533 1600.9 99.2004 99.1915 5.30176 5.57128 165320000.0
731 -0.01305 0.000297577 -365.513 1600.93 99.2066 99.1947 2.84156 -0.0747365 165322000.0
730 -0.01295 0.000297565 -365.527 1600.91 99.2017 99.1926 4.99263 6.80199 165319000.0
729 -0.01285 0.000297553 -365.543 1600.92 99.1978 99.1926 5.49063 8.37756 165322000.0
728 -0.01275 0.000297554 -365.541 1600.91 99.1979 99.191 5.54521 7.90904 165317000.0
727 -0.01265 0.00029758 -365.505 1600.88 99.2048 99.1961 0.0990838 -0.829514 165322000.0
726 -0.01255 0.000297568 -365.522 1600.9 99.2018 99.1938 2.91587 1.92894 165319000.0
725 -0.01245 0.000297564 -365.524 1600.92 99.2015 99.193 3.87295 2.30452 165317000.0
724 -0.01235 0.000297565 -365.526 1600.91 99.2014 99.1935 3.46913 0.977016 165318000.0
723 -0.01225 0.000297555 -365.536 1600.93 99.1993 99.1924 5.51163 3.09447 165313000.0
722 -0.01215 0.000297527 -365.572 1600.9 99.1883 99.1886 8.63536 12.0361 165308000.0
721 -0.01205 0.000297526 -365.574 1600.91 99.1884 99.188 7.77078 9.79066 165305000.0
720 -0.01195 0.000297543 -365.552 1600.91 99.1942 99.191 6.67582 5.75896 165311000.0
719 -0.01185 0.000297514 -365.584 1600.92 99.1853 99.1868 10.52 14.3913 165305000.0
718 -0.01175 0.000297522 -365.578 1600.87 99.1848 99.1871 7.56 9.82472 165299000.0
717 -0.01165 0.000297532 -365.565 1600.84 99.1863 99.1894 5.64941 8.34972 165301000.0
716 -0.01155 0.000297515 -365.585 1600.87 99.1821 99.1875 7.78834 12.6978 165295000.0
715 -0.01145 0.000297516 -365.584 1600.83 99.1804 99.188 6.97713 12.6712 165292000.0
714 -0.01135 0.000297507 -365.595 1600.85 99.1788 99.1867 9.04755 15.5781 165292000.0
713 -0.01125 0.000297508 -365.593 1600.97 99.1861 99.1865 12.4922 14.5673 165292000.0
712 -0.01115 0.000297513 -365.587 1600.98 99.1889 99.1879 12.1916 14.0209 165295000.0
711 -0.01105 0.000297525 -365.568 1601.0 99.1939 99.1868 11.0147 8.75896 165290000.0
710 -0.01095 0.000297524 -365.574 1601.04 99.1961 99.1883 12.8551 10.1513 165292000.0
709 -0.01085 0.0002975 -365.602 1600.98 99.1841 99.1853 13.5491 17.1099 165285000.0
708 -0.01075 0.000297507 -365.592 1601.02 99.189 99.1863 14.3551 15.5832 165289000.0
707 -0.01065 0.000297493 -365.611 1601.05 99.1861 99.185 16.5752 19.7531 165286000.0
706 -0.01055 0.000297499 -365.603 1601.08 99.1904 99.186 17.7347 16.4294 165285000.0
705 -0.01045 0.000297492 -365.611 1601.1 99.189 99.1849 18.6091 16.9285 165281000.0
704 -0.01035 0.000297487 -365.616 1601.11 99.1881 99.1839 18.916 18.4933 165275000.0
703 -0.01025 0.000297463 -365.649 1601.16 99.1832 99.1823 23.6802 25.9683 165274000.0
702 -0.01015 0.000297442 -365.675 1601.2 99.1786 99.1782 27.7982 31.39 165264000.0
701 -0.01005 0.000297433 -365.687 1601.15 99.1722 99.1767 27.1434 32.9334 165259000.0
700 -0.00995 0.000297434 -365.687 1601.21 99.1766 99.1772 29.992 34.9005 165256000.0
699 -0.00985 0.000297412 -365.712 1601.23 99.1704 99.1737 32.8539 38.8068 165248000.0
698 -0.00975 0.00029742 -365.706 1601.2 99.1708 99.1763 30.6615 37.6572 165249000.0
697 -0.00965 0.00029742 -365.705 1601.22 99.1726 99.1748 31.5557 35.8355 165239000.0
696 -0.00955 0.000297405 -365.721 1601.25 99.1691 99.173 34.1472 39.8328 165234000.0
695 -0.00945 0.000297395 -365.734 1601.32 99.17 99.1715 38.2929 42.7904 165231000.0
694 -0.00935 0.000297363 -365.772 1601.25 99.1551 99.1662 38.8258 47.305 165216000.0
693 -0.00925 0.000297357 -365.78 1601.27 99.1546 99.1668 40.0995 46.7885 165210000.0
692 -0.00915 0.000297336 -365.805 1601.26 99.1468 99.1641 42.4688 50.3058 165199000.0
691 -0.00905 0.000297296 -365.854 1601.34 99.1386 99.1586 50.8121 59.4222 165188000.0
690 -0.00895 0.000297296 -365.856 1601.39 99.1417 99.1587 52.6092 57.8591 165183000.0
689 -0.00885 0.000297272 -365.886 1601.4 99.1341 99.1546 55.3894 61.8134 165168000.0
688 -0.00875 0.000297278 -365.879 1601.39 99.1356 99.1558 53.9649 57.5536 165159000.0
687 -0.00865 0.000297263 -365.896 1601.46 99.1351 99.1536 58.813 60.1643 165149000.0
686 -0.00855 0.000297219 -365.951 1601.45 99.1196 99.1478 63.3684 69.662 165136000.0
685 -0.00845 0.000297187 -365.99 1601.5 99.1119 99.1424 68.2215 74.0032 165123000.0
684 -0.00835 0.000297164 -366.018 1601.46 99.1018 99.1386 70.7395 76.7459 165104000.0
683 -0.00825 0.000297144 -366.042 1601.46 99.0955 99.137 72.8789 78.4208 165092000.0
682 -0.00815 0.000297107 -366.087 1601.49 99.0849 99.1314 77.9477 86.6414 165075000.0
681 -0.00805 0.000297089 -366.109 1601.47 99.0778 99.1289 80.112 86.8161 165057000.0
680 -0.00795 0.000297062 -366.141 1601.56 99.0743 99.1272 86.0827 89.939 165044000.0
679 -0.00785 0.000297023 -366.191 1601.61 99.0643 99.1215 92.1874 96.1485 165024000.0
678 -0.00775 0.000296988 -366.229 1601.64 99.0542 99.1161 97.0826 100.17 165001000.0
677 -0.00765 0.000296948 -366.284 1601.69 99.0443 99.1115 104.25 108.186 164984000.0
676 -0.00755 0.000296898 -366.343 1601.75 99.0313 99.1038 112.562 117.796 164958000.0
675 -0.00745 0.00029685 -366.401 1601.79 99.0175 99.0968 118.753 123.652 164935000.0
674 -0.00735 0.000296805 -366.458 1601.86 99.0069 99.0915 127.146 129.192 164916000.0
673 -0.00725 0.000296754 -366.519 1601.82 98.9873 99.0833 132.668 134.363 164887000.0
672 -0.00715 0.000296672 -366.625 1601.89 98.9644 99.0721 144.233 148.753 164855000.0
671 -0.00705 0.000296626 -366.679 1601.89 98.9491 99.0664 149.705 150.721 164825000.0
670 -0.00695 0.000296541 -366.784 1602.03 98.9296 99.0549 164.682 164.618 164793000.0
669 -0.00685 0.000296476 -366.866 1602.07 98.9101 99.0465 173.68 171.674 164758000.0
668 -0.00675 0.000296383 -366.98 1602.12 98.8825 99.0332 187.451 184.784 164717000.0
667 -0.00665 0.000296304 -367.081 1602.19 98.8601 99.023 199.813 193.578 164678000.0
666 -0.00655 0.000296201 -367.205 1602.26 98.8303 99.0082 214.261 208.033 164632000.0
665 -0.00645 0.000296138 -367.287 1602.3 98.8115 99.0009 222.74 208.264 164594000.0
664 -0.00635 0.000296013 -367.44 1602.37 98.7744 98.9823 240.657 224.705 164536000.0
663 -0.00625 0.000295886 -367.597 1602.47 98.7383 98.9659 259.991 240.999 164485000.0
662 -0.00615 0.000295771 -367.741 1602.5 98.7013 98.9502 275.041 254.096 164428000.0
661 -0.00605 0.000295628 -367.922 1602.61 98.6604 98.9299 295.842 270.608 164364000.0
660 -0.00595 0.000295493 -368.088 1602.67 98.6187 98.911 313.833 284.312 164297000.0
659 -0.00585 0.000295341 -368.277 1602.73 98.5723 98.8896 335.351 298.934 164228000.0
658 -0.00575 0.000295168 -368.492 1602.78 98.5174 98.8663 358.081 319.647 164151000.0
657 -0.00565 0.000295004 -368.696 1602.89 98.4693 98.8448 381.714 335.174 164075000.0
656 -0.00555 0.000294809 -368.944 1602.97 98.4095 98.8166 408.392 355.05 163989000.0
655 -0.00545 0.000294574 -369.239 1603.01 98.3328 98.7846 438.444 384.527 163894000.0
654 -0.00535 0.000294369 -369.493 1602.99 98.2635 98.7566 463.24 401.407 163798000.0
653 -0.00525 0.000294125 -369.798 1603.11 98.1894 98.7229 496.558 425.726 163691000.0
652 -0.00515 0.000293841 -370.161 1603.23 98.1018 98.6831 536.318 458.912 163570000.0
651 -0.00505 0.000293558 -370.514 1603.32 98.0129 98.643 574.604 488.159 163449000.0
650 -0.00495 0.000293236 -370.922 1603.33 97.9064 98.5969 615.135 522.18 163311000.0
649 -0.00485 0.000292915 -371.329 1603.5 97.8092 98.5541 659.705 549.189 163177000.0
648 -0.00475 0.000292554 -371.79 1603.62 97.696 98.5013 708.839 582.98 163023000.0
647 -0.00465 0.000292156 -372.294 1603.64 97.5644 98.4458 759.198 621.491 162859000.0
646 -0.00455 0.000291717 -372.856 1603.69 97.4212 98.3845 815.5 665.398 162684000.0
645 -0.00445 0.000291268 -373.428 1603.77 97.2755 98.3206 874.372 703.72 162495000.0
644 -0.00435 0.000290764 -374.075 1603.83 97.1111 98.25 939.221 751.466 162290000.0
643 -0.00425 0.00029022 -374.78 1603.88 96.9323 98.1718 1009.8 803.432 162068000.0
642 -0.00415 0.000289646 -375.521 1603.99 96.747 98.09 1085.28 854.865 161835000.0
641 -0.00405 0.000289029 -376.32 1603.96 96.5392 98.002 1162.03 908.795 161582000.0
640 -0.00395 0.000288337 -377.223 1603.94 96.3072 97.9015 1249.4 974.905 161305000.0
639 -0.00385 0.000287596 -378.198 1603.92 96.0586 97.7932 1343.52 1043.38 161006000.0
638 -0.00375 0.00028681 -379.231 1603.96 95.7984 97.681 1445.14 1117.04 160698000.0
637 -0.00365 0.000285967 -380.35 1603.94 95.5153 97.557 1553.01 1194.8 160356000.0
636 -0.00355 0.000285061 -381.557 1603.86 95.2081 97.4237 1667.51 1276.87 159993000.0
635 -0.00345 0.000284097 -382.853 1603.75 94.88 97.282 1789.21 1364.22 159607000.0
634 -0.00335 0.000283043 -384.28 1603.7 94.5245 97.1236 1924.6 1462.43 159188000.0
633 -0.00325 0.000281904 -385.833 1603.62 94.1392 96.9522 2071.91 1571.53 158743000.0
632 -0.00315 0.000280683 -387.506 1603.42 93.7201 96.7666 2226.06 1686.89 158259000.0
631 -0.00305 0.000279391 -389.298 1603.27 93.2799 96.5697 2393.11 1807.37 157750000.0
630 -0.00295 0.000277976 -391.279 1603.1 92.7978 96.3511 2578.1 1949.11 157200000.0
629 -0.00285 0.000276476 -393.402 1602.83 92.2813 96.1179 2771.05 2095.84 156612000.0
628 -0.00275 0.000274843 -395.741 1602.56 91.7211 95.8621 2985.39 2268.91 155985000.0
627 -0.00265 0.000273122 -398.232 1602.13 91.1225 95.5859 3208.22 2446.1 155305000.0
626 -0.00255 0.000271293 -400.919 1601.63 90.4838 95.2914 3446.12 2636.55 154587000.0
625 -0.00245 0.000269362 -403.791 1601.09 89.8092 94.9742 3699.6 2838.92 153819000.0
624 -0.00235 0.000267302 -406.906 1600.53 89.0912 94.6327 3974.13 3062.26 153005000.0
623 -0.00225 0.0002651 -410.285 1599.82 88.3181 94.2612 4267.46 3311.71 152135000.0
622 -0.00215 0.000262761 -413.935 1598.97 87.4926 93.8588 4580.72 3584.35 151208000.0
621 -0.00205 0.000260306 -417.842 1597.96 86.6205 93.4319 4909.7 3873.64 150232000.0
620 -0.00195 0.000257712 -422.046 1596.82 85.6958 92.9695 5261.53 4190.55 149191000.0
619 -0.00185 0.000254961 -426.603 1595.66 84.7196 92.4702 5643.04 4540.99 148097000.0
618 -0.00175 0.000252086 -431.468 1594.3 83.6925 91.9367 6043.54 4918.08 146944000.0
617 -0.00165 0.000249063 -436.704 1592.64 82.6029 91.3628 6464.57 5329.0 145721000.0
616 -0.00155 0.000245885 -442.346 1590.8 81.455 90.7464 6914.88 5785.46 144442000.0
615 -0.00145 0.000242612 -448.318 1588.69 80.2642 90.0923 7381.34 6261.42 143097000.0
614 -0.00135 0.000239206 -454.7 1586.31 79.0189 89.3938 7872.09 6776.95 141692000.0
613 -0.00125 0.000235685 -461.493 1583.7 77.7277 88.6518 8385.72 7326.67 140232000.0
612 -0.00115 0.000232057 -468.711 1580.76 76.3889 87.8641 8922.25 7915.77 138716000.0
611 -0.00105 0.000228295 -476.43 1577.38 74.9897 87.0197 9480.06 8552.92 137131000.0
610 -0.00095 0.000224452 -484.595 1573.6 73.5505 86.1289 10056.6 9228.89 135494000.0
609 -0.00085 0.000220517 -493.234 1569.36 72.0668 85.1873 10652.1 9945.66 133810000.0
608 -0.00075 0.000216519 -502.347 1564.63 70.5471 84.1927 11262.0 10697.0 132073000.0
607 -0.00065 0.000212464 -511.934 1559.34 68.9915 83.1486 11882.9 11484.3 130298000.0
606 -0.00055 0.000208336 -522.078 1553.54 67.3997 82.0427 12522.9 12318.6 128485000.0
605 -0.00045 0.0002042 -532.657 1547.09 65.7874 80.8911 13165.6 13175.9 126645000.0
604 -0.00035 0.000200037 -543.737 1539.92 64.1474 79.6843 13811.0 14065.3 124773000.0
603 -0.00025 0.000195881 -555.283 1531.95 62.4895 78.4286 14451.6 14973.1 122874000.0
602 -0.00015 0.00019173 -567.3 1523.31 60.8204 77.121 15092.7 15905.2 120968000.0
601 -5e-05 0.000187636 -579.684 1513.86 59.1522 75.7751 15717.9 16831.7 119052000.0
600 5e-05 0.000183541 -592.613 1503.48 57.4645 74.3691 16336.8 17786.2 117128000.0
599 0.00015 0.000179507 -605.932 1492.16 55.7782 72.9215 16933.7 18732.0 115202000.0
598 0.00025 0.000175531 -619.655 1479.96 54.0968 71.4295 17510.2 19670.1 113278000.0
597 0.00035 0.000171633 -633.728 1466.79 52.4249 69.9007 18058.5 20591.9 111365000.0
596 0.00045 0.00016783 -648.093 1452.61 50.7678 68.3403 18571.6 21482.5 109455000.0
595 0.00055 0.000164129 -662.703 1437.52 49.1327 66.754 19046.6 22335.8 107562000.0
594 0.00065 0.000160504 -677.672 1421.34 47.5064 65.1274 19484.8 23160.6 105670000.0
593 0.00075 0.00015701 -692.755 1404.14 45.9101 63.4908 19873.0 23927.9 103795000.0
592 0.00085 0.000153623 -708.03 1386.09 44.3421 61.8314 20218.4 24640.7 101931000.0
591 0.00095 0.000150346 -723.463 1367.04 42.7998 60.156 20515.1 25298.0 100080000.0
590 0.00105 0.000147202 -738.912 1347.18 41.2961 58.4783 20758.5 25880.7 98232000.0
589 0.00115 0.000144178 -754.411 1326.4 39.824 56.796 20948.1 26395.3 96392300.0
588 0.00125 0.000141278 -769.899 1304.67 38.3833 55.1142 21079.0 26833.2 94544100.0
587 0.00135 0.000138497 -785.362 1282.36 36.9844 53.4355 21163.1 27196.5 92708400.0
586 0.00145 0.000135844 -800.697 1259.32 35.6242 51.7713 21189.5 27479.2 90865100.0
585 0.00155 0.000133316 -815.882 1235.76 34.3075 50.1231 21165.2 27681.0 89018100.0
584 0.00165 0.000130905 -830.913 1211.66 33.0297 48.4911 21090.2 27805.4 87165000.0
583 0.00175 0.000128596 -845.832 1187.02 31.7874 46.8717 20967.5 27856.3 85301500.0
582 0.00185 0.00012641 -860.464 1162.02 30.589 45.2838 20795.0 27828.2 83425000.0
581 0.00195 0.000124343 -874.763 1136.85 29.437 43.731 20578.7 27725.2 81538200.0
580 0.00205 0.000122368 -888.882 1111.37 28.3201 42.1987 20322.4 27557.0 79641200.0
579 0.00215 0.000120504 -902.627 1085.91 27.2501 40.7067 20030.4 27322.5 77737900.0
578 0.00225 0.00011874 -916.042 1060.46 26.2217 39.2503 19704.3 27026.0 75823500.0
577 0.00235 0.000117063 -929.157 1034.91 25.2286 37.8266 19344.3 26676.3 73897600.0
576 0.00245 0.00011548 -941.908 1009.55 24.2773 36.4424 18958.7 26274.1 71966600.0
575 0.00255 0.000113989 -954.222 984.44 23.368 35.1059 18549.0 25826.5 70034700.0
574 0.00265 0.000112576 -966.193 959.507 22.4939 33.8059 18116.9 25337.3 68095900.0
573 0.00275 0.000111239 -977.798 934.866 21.656 32.5459 17666.8 24812.1 66158700.0
572 0.00285 0.000109974 -989.063 910.55 20.8528 31.3231 17202.9 24254.4 64225300.0
571 0.00295 0.000108785 -999.865 886.783 20.0889 30.1502 16729.6 23672.9 62307700.0
570 0.00305 0.000107659 -1010.32 863.423 19.3573 29.0155 16247.3 23069.0 60399800.0
569 0.00315 0.0001066 -1020.36 840.538 18.6588 27.9251 15758.1 22448.4 58507000.0
568 0.00325 0.000105599 -1030.03 818.278 17.9942 26.8748 15268.8 21813.8 56638300.0
567 0.00335 0.000104654 -1039.33 796.536 17.3593 25.8655 14777.5 21169.8 54791000.0
566 0.00345 0.00010377 -1048.19 775.428 16.7564 24.9038 14287.0 20521.8 52967200.0
565 0.00355 0.000102928 -1056.76 754.801 16.1784 23.9736 13797.1 19868.5 51166400.0
564 0.00365 0.000102133 -1064.99 734.779 15.6276 23.0796 13312.6 19213.7 49397300.0
563 0.00375 0.000101388 -1072.81 715.465 15.1059 22.23 12835.5 18565.8 47667100.0
562 0.00385 0.000100686 -1080.29 696.831 14.6106 21.4185 12366.8 17922.9 45973000.0
561 0.00395 0.000100023 -1087.46 678.723 14.1372 20.6394 11904.0 17284.7 44310800.0
560 0.00405 9.93999e-05 -1094.27 661.37 13.6899 19.9 11454.1 16659.8 42697100.0
559 0.00415 9.88112e-05 -1100.79 644.575 13.2632 19.192 11012.3 16043.8 41118700.0
558 0.00425 9.82537e-05 -1107.04 628.385 12.8572 18.5135 10581.1 15437.8 39580700.0
557 0.00435 9.77263e-05 -1113.01 612.737 12.4697 17.8649 10159.9 14845.3 38083300.0
556 0.00445 9.72275e-05 -1118.72 597.572 12.099 17.245 9745.89 14264.6 36616600.0
555 0.00455 9.67619e-05 -1124.11 583.211 11.7517 16.6601 9350.58 13702.9 35210100.0
554 0.00465 9.63135e-05 -1129.34 569.259 11.4174 16.092 8962.99 13148.9 33836100.0
553 0.00475 9.5894e-05 -1134.28 555.92 11.1013 15.5555 8589.51 12615.5 32512900.0