TITLE = "DSMC"
VARIABLES = "ID" "X" "rho" "v1" "Ttrans" "p" "p1" "q1" "mv1v1v1" "mvvv1v1"
ZONE T="Ma=4.0_inv", I=900, J=1, K=1, F=POINT
900 -0.02995 0.000297693 -365.543 1599.93 99.1833 99.1724 2.10377 1.42426 165202000.0
899 -0.02985 0.000297681 -365.555 1600.0 99.1842 99.1704 6.33669 6.0936 165202000.0
898 -0.02975 0.000297665 -365.578 1600.03 99.18 99.169 9.51543 11.185 165204000.0
897 -0.02965 0.00029766 -365.587 1600.02 99.178 99.1676 9.48496 11.4132 165201000.0
896 -0.02955 0.000297676 -365.56 1599.91 99.1767 99.1691 4.40073 6.07522 165196000.0
895 -0.02945 0.000297692 -365.545 1599.9 99.1811 99.1717 1.70651 -0.221031 165201000.0
894 -0.02935 0.000297675 -365.565 1599.92 99.1766 99.1697 5.13526 4.8451 165200000.0
893 -0.02925 0.000297667 -365.571 1599.94 99.1753 99.1682 7.05783 7.17834 165197000.0
892 -0.02915 0.000297663 -365.583 1599.96 99.1754 99.1691 7.57463 7.56972 165200000.0
891 -0.02905 0.000297668 -365.573 1599.93 99.1755 99.1695 5.86956 5.57783 165198000.0
890 -0.02895 0.000297676 -365.565 1599.88 99.1747 99.1692 3.84736 4.51406 165194000.0
889 -0.02885 0.000297677 -365.562 1599.9 99.176 99.1716 3.92586 3.32398 165199000.0
888 -0.02875 0.000297682 -365.554 1599.85 99.1748 99.1715 1.79159 2.9326 165196000.0
887 -0.02865 0.000297671 -365.572 1599.91 99.1748 99.1687 4.72542 7.6176 165194000.0
886 -0.02855 0.000297686 -365.555 1599.9 99.1789 99.1712 3.63295 3.29053 165199000.0
885 -0.02845 0.000297666 -365.576 1599.9 99.1725 99.1685 5.60923 8.16668 165196000.0
884 -0.02835 0.000297673 -365.571 1599.95 99.1781 99.1705 6.8604 6.38361 165200000.0
883 -0.02825 0.000297673 -365.566 1599.96 99.1788 99.1722 7.12463 7.69304 165207000.0
882 -0.02815 0.00029768 -365.557 1599.92 99.1784 99.1704 5.44045 4.65933 165202000.0
881 -0.02805 0.00029767 -365.571 1599.87 99.1718 99.1691 4.17512 6.98198 165201000.0
880 -0.02795 0.000297689 -365.547 1599.88 99.1792 99.1723 2.3349 0.495574 165203000.0
879 -0.02785 0.000297688 -365.547 1599.91 99.1808 99.1726 3.54658 1.94273 165204000.0
878 -0.02775 0.000297697 -365.539 1599.81 99.1775 99.1724 -1.14556 -1.43803 165198000.0
877 -0.02765 0.000297715 -365.514 1599.82 99.1839 99.1755 -2.82263 -6.0528 165202000.0
876 -0.02755 0.000297712 -365.519 1599.89 99.1874 99.1756 -0.397814 -6.56589 165203000.0
875 -0.02745 0.000297697 -365.536 1599.85 99.1797 99.1721 1.08521 -3.28652 165198000.0
874 -0.02735 0.000297696 -365.537 1599.78 99.1751 99.1726 -2.39761 -2.8606 165194000.0
873 -0.02725 0.000297728 -365.499 1599.7 99.1805 99.1764 -7.94419 -10.638 165198000.0
872 -0.02715 0.0002977 -365.531 1599.74 99.1737 99.1728 -3.40782 -2.70558 165193000.0
871 -0.02705 0.000297708 -365.526 1599.72 99.1755 99.174 -4.49249 -5.36674 165196000.0
870 -0.02695 0.000297699 -365.537 1599.78 99.1762 99.1732 -2.17274 -1.0957 165197000.0
869 -0.02685 0.000297697 -365.537 1599.77 99.1747 99.1724 -1.37587 0.402535 165198000.0
868 -0.02675 0.000297695 -365.545 1599.8 99.1765 99.1711 0.60929 4.17031 165196000.0
867 -0.02665 0.0002977 -365.536 1599.85 99.1807 99.1724 -0.0312312 1.37021 165202000.0
866 -0.02655 0.000297684 -365.554 1599.88 99.1773 99.1694 3.6688 6.85773 165196000.0
865 -0.02645 0.00029768 -365.561 1599.89 99.1766 99.1695 4.23311 7.85231 165200000.0
864 -0.02635 0.000297663 -365.583 1599.84 99.1682 99.1665 5.11806 12.7333 165196000.0
863 -0.02625 0.000297693 -365.546 1599.89 99.181 99.1704 2.79392 3.66854 165198000.0
862 -0.02615 0.000297704 -365.532 1599.82 99.1806 99.1714 0.0629955 0.000218494 165198000.0
861 -0.02605 0.000297703 -365.535 1599.75 99.1756 99.1722 -2.92354 -1.63927 165192000.0
860 -0.02595 0.000297694 -365.543 1599.83 99.1775 99.1711 1.31417 -0.497899 165193000.0
859 -0.02585 0.000297704 -365.535 1599.9 99.1854 99.1736 2.2825 -2.502 165199000.0
858 -0.02575 0.000297682 -365.562 1599.9 99.1777 99.1707 5.43553 5.63835 165196000.0
857 -0.02565 0.00029769 -365.55 1599.88 99.1793 99.1707 3.87607 3.38734 165197000.0
856 -0.02555 0.00029769 -365.554 1599.88 99.1794 99.1708 3.85824 2.86814 165196000.0
855 -0.02545 0.000297712 -365.523 1599.79 99.1811 99.1737 -2.08258 -3.65085 165195000.0
854 -0.02535 0.000297704 -365.536 1599.78 99.1779 99.1717 -1.10182 -1.20764 165192000.0
853 -0.02525 0.000297698 -365.542 1599.79 99.1761 99.1718 -0.290136 0.594997 165191000.0
852 -0.02515 0.000297697 -365.545 1599.85 99.18 99.1714 1.65671 1.56467 165195000.0
851 -0.02505 0.000297687 -365.555 1599.78 99.1718 99.1689 1.71188 5.43351 165191000.0
850 -0.02495 0.000297704 -365.534 1599.84 99.1813 99.1725 1.08049 -0.956028 165201000.0
849 -0.02485 0.000297687 -365.557 1599.84 99.1756 99.1701 2.97269 2.58891 165196000.0
848 -0.02475 0.000297705 -365.533 1599.85 99.1826 99.1719 1.4179 -2.67303 165199000.0
847 -0.02465 0.000297684 -365.56 1599.8 99.1727 99.1701 2.74484 2.50854 165198000.0
846 -0.02455 0.00029769 -365.551 1599.84 99.1769 99.1706 2.06935 0.639704 165200000.0
845 -0.02445 0.000297713 -365.524 1599.87 99.1864 99.1737 1.45678 -3.36434 165203000.0
844 -0.02435 0.000297696 -365.544 1599.77 99.1743 99.1712 -0.692789 -0.369796 165200000.0
843 -0.02425 0.000297668 -365.579 1599.79 99.1663 99.169 3.69907 8.71523 165203000.0
842 -0.02415 0.000297661 -365.585 1599.85 99.1675 99.1672 6.42881 10.3768 165199000.0
841 -0.02405 0.000297686 -365.555 1599.87 99.1778 99.1708 3.91665 2.4889 165205000.0
840 -0.02395 0.000297676 -365.567 1599.91 99.1767 99.1695 6.53423 6.48762 165203000.0
839 -0.02385 0.000297673 -365.571 1599.86 99.1724 99.168 5.8024 7.3127 165201000.0
838 -0.02375 0.000297695 -365.546 1599.81 99.1769 99.1702 0.799766 -1.17958 165199000.0
837 -0.02365 0.000297694 -365.545 1599.79 99.175 99.1713 0.5719 -0.193837 165200000.0
836 -0.02355 0.000297694 -365.546 1599.79 99.1752 99.1704 1.41057 0.696879 165201000.0
835 -0.02345 0.00029769 -365.55 1599.81 99.175 99.1704 1.91649 0.667506 165200000.0
834 -0.02335 0.000297688 -365.551 1599.83 99.1755 99.1716 1.99808 3.50962 165202000.0
833 -0.02325 0.000297696 -365.546 1599.79 99.1754 99.1711 0.676787 2.49362 165198000.0
832 -0.02315 0.000297695 -365.542 1599.79 99.1753 99.1709 0.900394 2.01917 165196000.0
831 -0.02305 0.000297667 -365.579 1599.84 99.1693 99.1675 5.61472 10.6027 165192000.0
830 -0.02295 0.000297681 -365.563 1599.86 99.1754 99.1696 4.87732 6.72828 165194000.0
829 -0.02285 0.000297698 -365.541 1599.83 99.1789 99.1714 1.59689 2.48954 165192000.0
828 -0.02275 0.000297718 -365.516 1599.9 99.1898 99.1744 2.12455 -2.15823 165199000.0
827 -0.02265 0.00029772 -365.515 1599.84 99.1871 99.1753 -0.700841 -4.21354 165197000.0
826 -0.02255 0.000297716 -365.519 1599.84 99.1855 99.1732 -0.315789 -1.06052 165191000.0
825 -0.02245 0.000297725 -365.508 1599.83 99.1881 99.1755 -0.0654547 -2.38569 165196000.0
824 -0.02235 0.000297733 -365.498 1599.82 99.1897 99.1762 -1.79019 -5.91708 165195000.0
823 -0.02225 0.00029773 -365.503 1599.83 99.1895 99.1761 -2.37424 -6.06507 165193000.0
822 -0.02215 0.000297725 -365.51 1599.75 99.1831 99.1747 -3.23858 -4.06223 165188000.0
821 -0.02205 0.000297712 -365.521 1599.76 99.1794 99.1711 -2.09767 -3.37893 165181000.0
820 -0.02195 0.000297715 -365.522 1599.74 99.1793 99.1744 -2.24694 -2.94609 165187000.0
819 -0.02185 0.000297717 -365.519 1599.74 99.18 99.1729 -1.80881 -4.17469 165188000.0
818 -0.02175 0.000297716 -365.521 1599.8 99.1828 99.1745 0.409435 -1.10955 165193000.0
817 -0.02165 0.000297728 -365.506 1599.72 99.1825 99.1744 -3.33251 -5.63739 165187000.0
816 -0.02155 0.00029773 -365.505 1599.66 99.1793 99.1759 -5.64776 -6.20523 165186000.0
815 -0.02145 0.00029775 -365.48 1599.62 99.1831 99.1775 -9.9684 -13.0378 165189000.0
814 -0.02135 0.000297752 -365.478 1599.66 99.1864 99.1785 -7.90087 -12.0448 165192000.0
813 -0.02125 0.000297733 -365.502 1599.74 99.1853 99.1766 -3.82401 -7.89635 165195000.0
812 -0.02115 0.00029772 -365.517 1599.78 99.1832 99.1739 -0.50457 -2.39977 165191000.0
811 -0.02105 0.000297729 -365.506 1599.68 99.1799 99.1757 -5.119 -4.22472 165189000.0
810 -0.02095 0.00029772 -365.516 1599.74 99.181 99.1739 -1.82411 -1.92101 165189000.0
809 -0.02085 0.000297713 -365.528 1599.79 99.1812 99.1725 1.06875 0.728276 165189000.0
808 -0.02075 0.000297729 -365.506 1599.78 99.1859 99.1754 -1.99162 -4.17829 165192000.0
807 -0.02065 0.000297721 -365.517 1599.78 99.1835 99.1749 -0.912916 -0.267406 165193000.0
806 -0.02055 0.00029773 -365.504 1599.77 99.1856 99.1752 -2.0346 -4.17047 165191000.0
805 -0.02045 0.000297733 -365.502 1599.81 99.1896 99.1758 -1.14252 -4.70954 165193000.0
804 -0.02035 0.00029773 -365.505 1599.77 99.1862 99.1757 -1.38892 -3.81955 165195000.0
803 -0.02025 0.000297722 -365.516 1599.7 99.1791 99.1739 -4.11915 -3.57963 165187000.0
802 -0.02015 0.000297726 -365.512 1599.71 99.1808 99.1749 -3.02467 -4.02646 165190000.0
801 -0.02005 0.000297704 -365.54 1599.79 99.1782 99.1722 2.17946 2.89714 165191000.0
800 -0.01995 0.000297702 -365.54 1599.8 99.1787 99.1717 3.34837 3.7112 165191000.0
799 -0.01985 0.000297713 -365.529 1599.75 99.1788 99.1722 0.409388 1.6094 165190000.0
798 -0.01975 0.000297697 -365.548 1599.72 99.1717 99.17 0.123096 4.75236 165183000.0
797 -0.01965 0.000297711 -365.527 1599.69 99.1748 99.1727 -2.11503 1.52586 165184000.0
796 -0.01955 0.000297719 -365.522 1599.63 99.1739 99.174 -4.38354 -0.391597 165184000.0
795 -0.01945 0.00029772 -365.518 1599.67 99.1766 99.1743 -3.70728 0.397586 165185000.0
794 -0.01935 0.000297707 -365.532 1599.73 99.1756 99.1721 -0.64371 1.85514 165187000.0
793 -0.01925 0.00029772 -365.521 1599.7 99.1782 99.1736 -2.60838 -0.668405 165187000.0
792 -0.01915 0.000297714 -365.527 1599.67 99.1746 99.172 -2.91124 0.384941 165187000.0
791 -0.01905 0.000297712 -365.53 1599.67 99.1737 99.1734 -2.37675 0.823409 165191000.0
790 -0.01895 0.000297692 -365.554 1599.83 99.1771 99.171 5.44686 10.0267 165191000.0
789 -0.01885 0.000297705 -365.539 1599.83 99.1813 99.1708 3.67915 5.27237 165187000.0
788 -0.01875 0.000297711 -365.532 1599.73 99.1773 99.1731 -0.96953 3.78571 165188000.0
787 -0.01865 0.000297712 -365.527 1599.78 99.1808 99.173 1.22607 3.86104 165189000.0
786 -0.01855 0.000297718 -365.522 1599.73 99.1796 99.1725 -0.316758 2.77658 165183000.0
785 -0.01845 0.000297715 -365.525 1599.71 99.1773 99.1721 -1.67388 2.00688 165185000.0
784 -0.01835 0.000297721 -365.519 1599.7 99.1788 99.1742 -2.39306 0.691801 165190000.0
783 -0.01825 0.000297725 -365.511 1599.69 99.1791 99.1752 -3.20412 0.86106 165190000.0
782 -0.01815 0.000297732 -365.503 1599.75 99.1853 99.1746 -1.87039 -1.67843 165186000.0
781 -0.01805 0.000297742 -365.491 1599.67 99.1836 99.1763 -6.46694 -5.26439 165187000.0
780 -0.01795 0.000297734 -365.502 1599.81 99.1893 99.1757 0.546768 -1.10932 165189000.0
779 -0.01785 0.000297726 -365.511 1599.81 99.187 99.1747 1.02102 0.805004 165188000.0
778 -0.01775 0.000297735 -365.502 1599.81 99.1901 99.1757 -0.196073 -3.13552 165190000.0
777 -0.01765 0.000297737 -365.497 1599.72 99.1852 99.1761 -2.81992 -4.91528 165187000.0
776 -0.01755 0.000297738 -365.499 1599.73 99.186 99.1759 -3.39189 -5.39916 165184000.0
775 -0.01745 0.000297728 -365.507 1599.7 99.1813 99.1753 -1.82909 -1.76644 165184000.0
774 -0.01735 0.000297712 -365.529 1599.68 99.1739 99.1713 -0.786159 1.70023 165178000.0
773 -0.01725 0.000297724 -365.519 1599.64 99.1758 99.1744 -3.28263 -1.08112 165184000.0
772 -0.01715 0.000297727 -365.512 1599.69 99.18 99.1738 -2.21559 -3.04493 165184000.0
771 -0.01705 0.000297728 -365.51 1599.69 99.1803 99.1741 -2.33126 -4.7276 165182000.0
770 -0.01695 0.000297724 -365.516 1599.7 99.1791 99.1739 -2.28382 -3.72659 165183000.0
769 -0.01685 0.000297731 -365.509 1599.64 99.1784 99.175 -4.16621 -6.05306 165182000.0
768 -0.01675 0.000297714 -365.525 1599.62 99.1713 99.1731 -3.40236 -0.557668 165181000.0
767 -0.01665 0.000297722 -365.517 1599.64 99.1752 99.1745 -2.83023 -2.5279 165184000.0
766 -0.01655 0.000297727 -365.511 1599.62 99.1757 99.1746 -4.59697 -6.20651 165182000.0
765 -0.01645 0.000297747 -365.486 1599.58 99.18 99.1792 -8.40728 -11.6625 165187000.0
764 -0.01635 0.00029773 -365.507 1599.64 99.1779 99.1749 -3.34884 -6.91817 165182000.0
763 -0.01625 0.000297721 -365.517 1599.67 99.1769 99.1742 -2.5086 -4.48306 165182000.0
762 -0.01615 0.00029773 -365.506 1599.66 99.179 99.1751 -3.51536 -7.02828 165183000.0
761 -0.01605 0.00029774 -365.494 1599.7 99.1847 99.1768 -3.75665 -8.95202 165185000.0
760 -0.01595 0.000297722 -365.517 1599.64 99.1753 99.1738 -3.72446 -1.78297 165178000.0
759 -0.01585 0.000297724 -365.513 1599.73 99.181 99.1739 -0.798597 -1.82451 165183000.0
758 -0.01575 0.000297733 -365.503 1599.64 99.1791 99.176 -4.36851 -4.88923 165181000.0
757 -0.01565 0.000297726 -365.511 1599.61 99.1746 99.1761 -4.55396 -2.85592 165184000.0
756 -0.01555 0.000297733 -365.503 1599.6 99.1766 99.1761 -5.52732 -5.63709 165182000.0
755 -0.01545 0.000297739 -365.496 1599.62 99.1799 99.1774 -5.19526 -5.72462 165187000.0
754 -0.01535 0.000297743 -365.492 1599.66 99.1832 99.1775 -4.18265 -6.68313 165188000.0
753 -0.01525 0.000297751 -365.484 1599.65 99.1852 99.1789 -5.33032 -8.57339 165189000.0
752 -0.01515 0.000297736 -365.498 1599.67 99.182 99.176 -2.66249 -5.35665 165189000.0
751 -0.01505 0.000297733 -365.505 1599.72 99.1839 99.1762 -1.2332 -5.80666 165191000.0
750 -0.01495 0.000297724 -365.516 1599.75 99.1824 99.1749 1.28976 -3.03984 165191000.0
749 -0.01485 0.000297733 -365.506 1599.8 99.189 99.1767 2.56334 -5.07687 165192000.0
748 -0.01475 0.000297728 -365.511 1599.7 99.1806 99.1746 -0.309229 -5.2232 165186000.0
747 -0.01465 0.000297718 -365.523 1599.72 99.1791 99.1751 1.30018 -1.27656 165188000.0
746 -0.01455 0.000297722 -365.517 1599.74 99.1813 99.1752 1.43891 -1.6072 165188000.0
745 -0.01445 0.00029772 -365.521 1599.75 99.181 99.1742 2.60789 -1.76269 165190000.0
744 -0.01435 0.000297703 -365.545 1599.8 99.1788 99.1732 6.04282 1.75142 165188000.0
743 -0.01425 0.000297705 -365.537 1599.74 99.1755 99.172 3.60293 -0.045765 165183000.0
742 -0.01415 0.000297705 -365.542 1599.75 99.176 99.1727 3.66299 1.53208 165184000.0
741 -0.01405 0.0002977 -365.543 1599.69 99.171 99.1709 2.43919 4.83395 165178000.0
740 -0.01395 0.000297698 -365.549 1599.78 99.1758 99.172 5.69015 5.68927 165181000.0
739 -0.01385 0.0002977 -365.546 1599.69 99.171 99.1721 3.03146 5.71534 165177000.0
738 -0.01375 0.000297683 -365.567 1599.75 99.1686 99.1702 6.7718 11.4704 165177000.0
737 -0.01365 0.0002977 -365.543 1599.65 99.1683 99.1719 0.940939 2.24591 165176000.0
736 -0.01355 0.000297708 -365.536 1599.67 99.1723 99.1738 0.766396 0.283998 165178000.0
735 -0.01345 0.000297707 -365.534 1599.67 99.1722 99.1742 0.610581 1.80515 165179000.0
734 -0.01335 0.000297713 -365.529 1599.76 99.1798 99.1749 3.37386 2.97624 165179000.0
733 -0.01325 0.000297733 -365.501 1599.74 99.1852 99.1768 0.132367 -2.53341 165178000.0
732 -0.01315 0.000297728 -365.508 1599.73 99.1827 99.1762 -0.0687477 -0.32429 165178000.0
731 -0.01305 0.000297716 -365.523 1599.66 99.1746 99.1734 -0.616978 2.85505 165171000.0
730 -0.01295 0.000297716 -365.527 1599.71 99.1771 99.1735 1.02504 3.88689 165171000.0
729 -0.01285 0.000297705 -365.542 1599.67 99.1717 99.173 1.1821 6.82723 165170000.0
728 -0.01275 0.000297706 -365.537 1599.74 99.176 99.1725 3.63083 5.82391 165166000.0
727 -0.01265 0.000297709 -365.536 1599.68 99.1731 99.1721 1.63121 4.54468 165164000.0
726 -0.01255 0.000297709 -365.535 1599.65 99.1713 99.173 0.188528 5.9363 165165000.0
725 -0.01245 0.000297709 -365.538 1599.71 99.1752 99.1727 2.65574 6.34423 165166000.0
724 -0.01235 0.000297711 -365.533 1599.67 99.1738 99.1737 1.17777 6.72193 165166000.0
723 -0.01225 0.000297707 -365.538 1599.74 99.1764 99.1721 3.84905 7.83298 165164000.0
722 -0.01215 0.000297713 -365.534 1599.76 99.1798 99.1732 4.31684 5.93805 165166000.0
721 -0.01205 0.000297719 -365.524 1599.74 99.1801 99.1753 2.23692 2.25537 165168000.0
720 -0.01195 0.000297725 -365.516 1599.75 99.1832 99.1752 2.95759 1.81043 165166000.0
719 -0.01185 0.000297709 -365.536 1599.79 99.1801 99.1733 4.75285 5.76477 165164000.0
718 -0.01175 0.000297687 -365.566 1599.83 99.1753 99.17 9.53257 12.6141 165160000.0
717 -0.01165 0.000297677 -365.573 1599.81 99.1709 99.1684 9.75005 13.5552 165156000.0
716 -0.01155 0.000297682 -365.568 1599.74 99.1683 99.1692 6.8268 12.3764 165155000.0
715 -0.01145 0.000297693 -365.556 1599.74 99.1719 99.1707 6.21102 8.61624 165155000.0
714 -0.01135 0.000297707 -365.542 1599.77 99.1783 99.1727 4.66702 2.77331 165154000.0
713 -0.01125 0.000297691 -365.557 1599.79 99.1741 99.1699 7.62602 7.66311 165146000.0
712 -0.01115 0.000297679 -365.575 1599.82 99.172 99.1692 10.0331 11.8461 165144000.0
711 -0.01105 0.000297678 -365.573 1599.79 99.1699 99.1693 8.54437 11.6289 165141000.0
710 -0.01095 0.000297688 -365.563 1599.9 99.1802 99.1706 11.8296 8.63734 165145000.0
709 -0.01085 0.000297681 -365.568 1599.89 99.1769 99.1696 11.3561 11.5305 165142000.0
708 -0.01075 0.000297679 -365.573 1599.88 99.1759 99.1698 11.7811 10.9068 165142000.0
707 -0.01065 0.000297661 -365.594 1599.92 99.172 99.1688 15.1788 16.2051 165139000.0
706 -0.01055 0.000297649 -365.608 1599.86 99.1646 99.1663 15.0411 18.8411 165133000.0
705 -0.01045 0.000297647 -365.609 1599.88 99.1652 99.1651 16.4469 17.8504 165129000.0
704 -0.01035 0.000297641 -365.617 1599.84 99.1609 99.1652 15.4189 19.1282 165122000.0
703 -0.01025 0.000297645 -365.612 1599.91 99.1664 99.165 17.4156 17.5915 165121000.0
702 -0.01015 0.000297619 -365.643 1599.92 99.1584 99.162 20.7531 24.0791 165117000.0
701 -0.01005 0.000297618 -365.644 1599.93 99.1583 99.1631 21.4721 23.8948 165118000.0
700 -0.00995 0.000297607 -365.657 1599.95 99.1557 99.1609 22.9844 25.9282 165112000.0
699 -0.00985 0.00029759 -365.678 1599.98 99.1525 99.1582 26.2781 29.8429 165107000.0
698 -0.00975 0.000297577 -365.69 1600.02 99.1506 99.1568 29.3887 33.1389 165100000.0
697 -0.00965 0.000297587 -365.68 1600.04 99.1549 99.1576 28.6421 30.3058 165098000.0
696 -0.00955 0.000297565 -365.706 1600.03 99.1472 99.155 31.2704 37.335 165091000.0
695 -0.00945 0.000297573 -365.697 1600.01 99.1484 99.1551 28.8841 33.6989 165084000.0
694 -0.00935 0.000297566 -365.704 1600.09 99.1512 99.1558 32.4129 35.5417 165083000.0
693 -0.00925 0.00029756 -365.712 1600.13 99.1516 99.1536 34.4773 35.1894 165077000.0
692 -0.00915 0.00029753 -365.748 1600.04 99.1358 99.1513 34.8936 43.0867 165069000.0
691 -0.00905 0.000297511 -365.772 1600.05 99.1306 99.1488 37.9449 46.2473 165059000.0
690 -0.00895 0.000297499 -365.784 1600.14 99.1321 99.1472 42.7816 46.9229 165054000.0
689 -0.00885 0.00029748 -365.81 1600.19 99.1289 99.1439 46.2679 49.057 165041000.0
688 -0.00875 0.000297445 -365.851 1600.24 99.1198 99.1392 51.7353 57.3243 165030000.0
687 -0.00865 0.000297443 -365.85 1600.23 99.1186 99.1405 51.9767 53.5633 165023000.0
686 -0.00855 0.000297409 -365.894 1600.27 99.11 99.1359 57.3512 61.8239 165010000.0
685 -0.00845 0.000297382 -365.926 1600.17 99.0951 99.1321 57.665 66.1271 164991000.0
684 -0.00835 0.000297377 -365.932 1600.2 99.0945 99.1318 57.9855 64.0449 164983000.0
683 -0.00825 0.000297362 -365.95 1600.17 99.0884 99.1301 59.9236 65.2687 164972000.0
682 -0.00815 0.000297329 -365.988 1600.35 99.0885 99.1257 69.3541 73.0937 164957000.0
681 -0.00805 0.000297294 -366.034 1600.38 99.0784 99.1216 74.8428 80.5008 164945000.0
680 -0.00795 0.00029725 -366.086 1600.49 99.0705 99.1139 82.4995 87.0342 164921000.0
679 -0.00785 0.000297213 -366.13 1600.47 99.0572 99.1102 87.7757 95.1313 164903000.0
678 -0.00775 0.000297175 -366.175 1600.54 99.0488 99.1044 94.0675 101.044 164881000.0
677 -0.00765 0.000297154 -366.201 1600.58 99.0442 99.1021 97.7152 101.216 164864000.0
676 -0.00755 0.000297097 -366.272 1600.62 99.0276 99.0943 105.911 112.219 164842000.0
675 -0.00745 0.000297067 -366.307 1600.64 99.0186 99.0916 110.129 113.041 164823000.0
674 -0.00735 0.000297025 -366.356 1600.68 99.0073 99.0847 117.425 119.494 164796000.0
673 -0.00725 0.000296983 -366.406 1600.78 98.9994 99.0805 125.227 123.393 164775000.0
672 -0.00715 0.000296937 -366.464 1600.8 98.9852 99.0751 130.401 127.257 164750000.0
671 -0.00705 0.000296864 -366.549 1600.91 98.9678 99.0652 142.625 138.756 164721000.0
670 -0.00695 0.000296793 -366.634 1600.85 98.9405 99.0554 149.478 148.348 164687000.0
669 -0.00685 0.00029673 -366.711 1600.9 98.9227 99.0465 158.684 153.143 164652000.0
668 -0.00675 0.000296633 -366.83 1600.97 98.8949 99.0349 172.928 169.472 164615000.0
667 -0.00665 0.000296565 -366.912 1601.07 98.878 99.026 183.85 173.791 164582000.0
666 -0.00655 0.000296485 -367.008 1601.16 98.8569 99.0156 197.151 182.759 164545000.0
665 -0.00645 0.000296379 -367.136 1601.25 98.8273 99.0023 211.92 198.328 164505000.0
664 -0.00635 0.00029626 -367.284 1601.38 98.7956 98.985 230.618 214.972 164455000.0
663 -0.00625 0.000296129 -367.441 1601.49 98.7583 98.9685 249.597 234.157 164406000.0
662 -0.00615 0.000296046 -367.542 1601.52 98.7325 98.9572 261.25 236.23 164354000.0
661 -0.00605 0.000295929 -367.684 1601.55 98.6957 98.9419 276.009 245.001 164299000.0
660 -0.00595 0.000295777 -367.871 1601.59 98.6474 98.9203 296.3 265.126 164232000.0
659 -0.00585 0.00029562 -368.063 1601.67 98.6 98.9019 316.901 285.43 164170000.0
658 -0.00575 0.000295447 -368.274 1601.75 98.5471 98.8776 339.968 306.402 164092000.0
657 -0.00565 0.000295297 -368.455 1601.84 98.503 98.8589 361.49 317.321 164021000.0
656 -0.00555 0.000295089 -368.712 1601.94 98.4391 98.8314 389.635 343.167 163938000.0
655 -0.00545 0.00029489 -368.954 1602.0 98.3767 98.8055 415.929 360.419 163853000.0
654 -0.00535 0.000294674 -369.22 1602.14 98.3134 98.776 446.892 381.635 163759000.0
653 -0.00525 0.00029443 -369.52 1602.2 98.2357 98.7432 477.346 406.787 163657000.0
652 -0.00515 0.000294174 -369.836 1602.27 98.1546 98.7101 511.624 430.315 163549000.0
651 -0.00505 0.000293888 -370.19 1602.36 98.0648 98.6714 548.894 458.598 163429000.0
650 -0.00495 0.000293586 -370.561 1602.49 97.9717 98.6308 589.747 487.23 163305000.0
649 -0.00485 0.000293262 -370.963 1602.58 97.869 98.5868 631.551 517.073 163168000.0
648 -0.00475 0.000292909 -371.404 1602.69 97.758 98.5396 678.642 552.346 163026000.0
647 -0.00465 0.000292513 -371.895 1602.8 97.6322 98.4864 730.033 591.386 162868000.0
646 -0.00455 0.000292104 -372.41 1602.98 97.5068 98.431 786.364 630.254 162703000.0
645 -0.00445 0.000291666 -372.957 1603.09 97.3675 98.37 843.224 666.276 162523000.0
644 -0.00435 0.000291166 -373.584 1603.21 97.2076 98.3028 907.702 714.958 162329000.0
643 -0.00425 0.000290659 -374.226 1603.27 97.0419 98.2343 973.575 757.992 162124000.0
642 -0.00415 0.00029008 -374.961 1603.21 96.8453 98.1531 1042.29 810.766 161890000.0
641 -0.00405 0.000289467 -375.739 1603.31 96.6467 98.0692 1122.16 864.58 161651000.0
640 -0.00395 0.000288801 -376.59 1603.37 96.4275 97.9767 1206.72 923.44 161389000.0
639 -0.00385 0.000288071 -377.529 1603.51 96.1926 97.8758 1302.33 992.1 161110000.0
638 -0.00375 0.000287312 -378.508 1603.53 95.9404 97.77 1398.37 1058.0 160811000.0
637 -0.00365 0.000286467 -379.604 1603.6 95.6623 97.6493 1507.32 1136.13 160479000.0
636 -0.00355 0.00028556 -380.791 1603.57 95.3572 97.5232 1620.55 1220.42 160134000.0
635 -0.00345 0.000284583 -382.071 1603.61 95.0336 97.3822 1747.05 1311.49 159756000.0
634 -0.00335 0.000283552 -383.437 1603.62 94.6898 97.2351 1878.33 1403.24 159358000.0
633 -0.00325 0.000282435 -384.93 1603.57 94.3137 97.074 2020.48 1504.02 158929000.0
632 -0.00315 0.000281247 -386.526 1603.5 93.913 96.9011 2171.85 1610.11 158468000.0
631 -0.00305 0.000279952 -388.283 1603.34 93.4713 96.709 2335.62 1730.83 157964000.0
630 -0.00295 0.00027854 -390.22 1603.24 92.9943 96.4996 2518.53 1868.71 157430000.0
629 -0.00285 0.000277053 -392.277 1603.05 92.4867 96.2778 2708.09 2008.55 156862000.0
628 -0.00275 0.000275456 -394.512 1602.8 91.939 96.0348 2914.09 2164.5 156246000.0
627 -0.00265 0.000273725 -396.963 1602.58 91.3487 95.7699 3139.74 2340.03 155592000.0
626 -0.00255 0.000271903 -399.581 1602.12 90.7152 95.488 3373.37 2524.73 154890000.0
625 -0.00245 0.000269957 -402.408 1601.74 90.0443 95.1835 3628.81 2727.22 154149000.0
624 -0.00235 0.000267885 -405.466 1601.23 89.325 94.8522 3900.4 2947.0 153349000.0
623 -0.00225 0.000265697 -408.747 1600.62 88.5615 94.4991 4189.4 3182.1 152506000.0
622 -0.00215 0.000263349 -412.324 1600.06 87.7481 94.1137 4506.86 3448.12 151609000.0
621 -0.00205 0.000260863 -416.187 1599.33 86.88 93.6987 4842.56 3736.64 150656000.0
620 -0.00195 0.000258263 -420.299 1598.46 85.9675 93.2539 5197.22 4044.93 149644000.0
619 -0.00185 0.000255487 -424.786 1597.43 84.9887 92.7729 5577.79 4393.4 148574000.0
618 -0.00175 0.000252586 -429.579 1596.25 83.9613 92.2584 5980.15 4765.59 147446000.0
617 -0.00165 0.000249542 -434.723 1594.96 82.8826 91.7063 6408.73 5169.38 146257000.0
616 -0.00155 0.00024637 -440.219 1593.41 81.7496 91.1171 6857.25 5604.46 145005000.0
615 -0.00145 0.000243046 -446.132 1591.61 80.5557 90.483 7332.94 6080.36 143689000.0
614 -0.00135 0.000239574 -452.474 1589.59 79.3037 89.8044 7835.86 6602.28 142316000.0
613 -0.00125 0.000235994 -459.214 1587.37 78.0096 89.0839 8362.5 7153.71 140883000.0
612 -0.00115 0.000232294 -466.393 1584.72 76.6582 88.3166 8909.66 7747.8 139389000.0
611 -0.00105 0.000228469 -474.051 1581.75 75.255 87.4985 9482.55 8387.99 137839000.0
610 -0.00095 0.000224558 -482.152 1578.37 73.8084 86.6365 10074.0 9067.59 136241000.0
609 -0.00085 0.000220535 -490.776 1574.57 72.3119 85.7173 10690.0 9798.74 134589000.0
608 -0.00075 0.000216437 -499.883 1570.32 70.7767 84.7487 11324.0 10569.2 132895000.0
607 -0.00065 0.000212253 -509.543 1565.56 69.1978 83.7226 11979.5 11390.5 131161000.0
606 -0.00055 0.000208002 -519.747 1560.25 67.5821 82.6404 12650.7 12258.0 129389000.0
605 -0.00045 0.000203712 -530.465 1554.31 65.9361 81.5033 13333.3 13164.9 127588000.0
604 -0.00035 0.000199381 -541.746 1547.6 64.2557 80.3088 14023.3 14114.3 125757000.0
603 -0.00025 0.000195029 -553.583 1540.18 62.552 79.0574 14721.9 15103.6 123917000.0
602 -0.00015 0.000190649 -566.024 1531.9 60.8184 77.7432 15424.0 16135.4 122062000.0
601 -5e-05 0.000186235 -579.15 1522.67 59.0524 76.3579 16131.3 17218.2 120202000.0
600 5e-05 0.000181835 -593.148 1512.21 57.261 74.8513 16837.4 18342.6 118291000.0
599 0.00015 0.000177645 -607.397 1500.23 55.4984 73.2883 17481.8 19397.7 116322000.0
598 0.00025 0.000173599 -621.812 1487.28 53.7662 71.707 18083.4 20403.7 114359000.0
597 0.00035 0.000169666 -636.473 1473.4 52.0578 70.1004 18647.2 21371.5 112412000.0
596 0.00045 0.000165843 -651.396 1458.43 50.3676 68.4654 19169.0 22302.8 110474000.0
595 0.00055 0.000162136 -666.524 1442.52 48.7047 66.807 19647.6 23185.8 108550000.0
594 0.00065 0.000158547 -681.843 1425.55 47.0664 65.1298 20078.4 24017.9 106640000.0
593 0.00075 0.000155083 -697.298 1407.63 45.4593 63.4373 20459.4 24788.7 104743000.0
592 0.00085 0.000151739 -712.897 1388.79 43.8836 61.7304 20792.1 25498.6 102860000.0
591 0.00095 0.000148523 -728.536 1368.9 42.3386 60.0173 21064.4 26134.4 100975000.0
590 0.00105 0.000145421 -744.283 1348.15 40.8258 58.2952 21286.9 26705.8 99105600.0
589 0.00115 0.000142464 -759.935 1326.61 39.3568 56.5825 21450.9 27190.4 97236600.0
588 0.00125 0.000139618 -775.624 1304.23 37.9195 54.8662 21561.1 27603.8 95370400.0
587 0.00135 0.000136893 -791.247 1281.15 36.5218 53.1578 21617.3 27936.9 93504000.0
586 0.00145 0.000134306 -806.675 1257.39 35.1671 51.4707 21613.2 28181.3 91625000.0
585 0.00155 0.000131837 -821.956 1233.12 33.8541 49.7988 21559.3 28345.7 89744000.0
584 0.00165 0.000129476 -837.104 1208.27 32.5779 48.1425 21452.6 28432.2 87850000.0
583 0.00175 0.000127237 -852.005 1183.08 31.3471 46.5137 21298.7 28440.1 85950900.0
582 0.00185 0.000125119 -866.585 1157.63 30.1622 44.9188 21096.5 28366.6 84034100.0
581 0.00195 0.000123102 -880.93 1131.84 29.0148 43.3508 20849.8 28223.8 82105900.0
580 0.00205 0.000121183 -895.027 1105.93 27.9088 41.8096 20566.1 28013.0 80167100.0
579 0.00215 0.000119372 -908.741 1080.04 26.8478 40.3095 20245.1 27736.2 78219200.0
578 0.00225 0.000117663 -922.08 1054.21 25.8308 38.8521 19892.2 27400.0 76263900.0
577 0.00235 0.000116039 -935.111 1028.32 24.8486 37.427 19506.1 27008.9 74292700.0
576 0.00245 0.00011451 -947.726 1002.77 23.9118 36.0477 19097.2 26567.8 72322100.0
575 0.00255 0.00011306 -959.987 977.324 23.01 34.7069 18662.7 26083.4 70343400.0
574 0.00265 0.000111689 -971.889 952.203 22.1466 33.4051 18210.5 25558.3 68365400.0
573 0.00275 0.0001104 -983.342 927.451 21.3222 32.1535 17741.7 25001.2 66391600.0
572 0.00285 0.000109187 -994.369 903.227 20.537 30.9476 17262.9 24414.8 64428200.0
571 0.00295 0.000108039 -1005.02 879.376 19.7846 29.7824 16772.1 23804.7 62472500.0
570 0.00305 0.00010695 -1015.36 855.916 19.0626 28.6527 16273.2 23173.2 60526700.0
569 0.00315 0.000105928 -1025.25 833.076 18.3766 27.5706 15772.2 22528.0 58604300.0
568 0.00325 0.00010496 -1034.77 810.769 17.7212 26.5288 15268.0 21870.6 56698500.0
567 0.00335 0.000104046 -1043.94 789.019 17.0956 25.5263 14764.1 21205.3 54817800.0
566 0.00345 0.000103188 -1052.72 767.815 16.499 24.5672 14260.2 20537.4 52960800.0
565 0.00355 0.00010237 -1061.2 747.141 15.9273 23.6389 13758.6 19863.8 51128100.0
564 0.00365 0.000101609 -1069.21 727.369 15.3907 22.7627 13269.7 19198.0 49346000.0
563 0.00375 0.00010089 -1076.9 708.161 14.8782 21.9218 12785.4 18535.1 47591700.0
562 0.00385 0.000100212 -1084.26 689.571 14.3902 21.1172 12309.2 17879.0 45875900.0
561 0.00395 9.95696e-05 -1091.3 671.616 13.9257 20.3461 11841.7 17229.1 44196100.0
560 0.00405 9.89614e-05 -1098.08 654.096 13.4796 19.6054 11379.4 16588.8 42549500.0
559 0.00415 9.83876e-05 -1104.52 637.309 13.0575 18.9003 10930.1 15961.1 40949000.0
558 0.00425 9.78499e-05 -1110.64 621.191 12.6577 18.2302 10493.1 15347.1 39392300.0
557 0.00435 9.73436e-05 -1116.48 605.76 12.2794 17.592 10070.7 14748.3 37886800.0
556 0.00445 9.6867e-05 -1122.02 590.988 11.9213 16.9859 9661.89 14166.3 36429400.0
555 0.00455 9.64143e-05 -1127.33 576.704 11.5788 16.4046 9262.7 13596.9 35009000.0
554 0.00465 9.59878e-05 -1132.38 562.986 11.2534 15.8525 8875.65 13045.6 33635100.0
553 0.00475 9.55843e-05 -1137.21 549.792 10.9435 15.3237 8500.0 12507.0 32299100.0