ITEM: TIMESTEP
10000
ITEM: NUMBER OF CELLS
900
ITEM: BOX BOUNDS os pp pp
-0.06 0.03
-0.001 0.001
-0.001 0.001
ITEM: CELLS id f_1[1] f_1[2] f_1[3] f_1[4] f_1[5] f_1[6] f_1[7] f_1[8] f_1[9] 
1 -0.05995 8.83414e-05 1231.27 273.113 5.0243 5.02266 0.0471316 0.109827 1.42644e+06 
2 -0.05985 8.83412e-05 1231.27 273.117 5.02436 5.02296 -0.057365 -0.11814 1.42678e+06 
3 -0.05975 8.83414e-05 1231.27 273.119 5.02442 5.02298 -0.074818 -0.145523 1.42688e+06 
4 -0.05965 8.83415e-05 1231.27 273.12 5.02445 5.02298 -0.132319 -0.237974 1.42697e+06 
5 -0.05955 8.83415e-05 1231.27 273.12 5.02444 5.02305 -0.17502 -0.323473 1.42711e+06 
6 -0.05945 8.83423e-05 1231.27 273.119 5.02447 5.02308 -0.167912 -0.298702 1.42717e+06 
7 -0.05935 8.83411e-05 1231.27 273.122 5.02446 5.02315 -0.230977 -0.393398 1.42726e+06 
8 -0.05925 8.83412e-05 1231.27 273.121 5.02444 5.02313 -0.226416 -0.40937 1.42731e+06 
9 -0.05915 8.83419e-05 1231.27 273.123 5.02451 5.02316 -0.234462 -0.438414 1.42734e+06 
10 -0.05905 8.83417e-05 1231.27 273.122 5.02449 5.02324 -0.274495 -0.501078 1.42741e+06 
11 -0.05895 8.83418e-05 1231.27 273.123 5.02452 5.02334 -0.281235 -0.509924 1.42747e+06 
12 -0.05885 8.83416e-05 1231.27 273.124 5.02452 5.02334 -0.278314 -0.49584 1.42749e+06 
13 -0.05875 8.83419e-05 1231.27 273.123 5.02452 5.02354 -0.321027 -0.557108 1.42759e+06 
14 -0.05865 8.8342e-05 1231.27 273.126 5.02459 5.02359 -0.33803 -0.628071 1.42773e+06 
15 -0.05855 8.83421e-05 1231.27 273.127 5.02461 5.02364 -0.347832 -0.569179 1.42774e+06 
16 -0.05845 8.83421e-05 1231.27 273.126 5.02458 5.02364 -0.375516 -0.598926 1.42774e+06 
17 -0.05835 8.83422e-05 1231.27 273.128 5.02463 5.0238 -0.381855 -0.64364 1.42789e+06 
18 -0.05825 8.83429e-05 1231.26 273.128 5.02467 5.02384 -0.376857 -0.636802 1.42786e+06 
19 -0.05815 8.83418e-05 1231.27 273.127 5.02459 5.02381 -0.383863 -0.656917 1.42785e+06 
20 -0.05805 8.83423e-05 1231.27 273.128 5.02463 5.02381 -0.338717 -0.560493 1.42785e+06 
21 -0.05795 8.83421e-05 1231.27 273.126 5.0246 5.02369 -0.360369 -0.547271 1.42779e+06 
22 -0.05785 8.83421e-05 1231.26 273.126 5.02459 5.02371 -0.328298 -0.524834 1.42778e+06 
23 -0.05775 8.83418e-05 1231.27 273.128 5.0246 5.02381 -0.333384 -0.533527 1.42787e+06 
24 -0.05765 8.83429e-05 1231.27 273.126 5.02464 5.0239 -0.335024 -0.547193 1.42794e+06 
25 -0.05755 8.83418e-05 1231.26 273.128 5.02461 5.02383 -0.345623 -0.599678 1.42791e+06 
26 -0.05745 8.83422e-05 1231.27 273.126 5.02459 5.02387 -0.317315 -0.551028 1.42792e+06 
27 -0.05735 8.83417e-05 1231.26 273.129 5.02462 5.02386 -0.323349 -0.555138 1.42794e+06 
28 -0.05725 8.83415e-05 1231.27 273.125 5.02454 5.02374 -0.291233 -0.492313 1.42786e+06 
29 -0.05715 8.83422e-05 1231.27 273.127 5.02461 5.02382 -0.271704 -0.486531 1.42789e+06 
34 -0.05665 8.83425e-05 1231.26 273.126 5.02461 5.024 -0.227742 -0.43988 1.42798e+06 
33 -0.05675 8.83415e-05 1231.26 273.126 5.02456 5.02386 -0.229056 -0.462089 1.42794e+06 
35 -0.05655 8.83424e-05 1231.26 273.127 5.02463 5.02408 -0.232489 -0.46838 1.42804e+06 
36 -0.05645 8.83422e-05 1231.26 273.126 5.02459 5.02406 -0.227846 -0.460175 1.42803e+06 
37 -0.05635 8.83423e-05 1231.26 273.125 5.02459 5.02404 -0.188772 -0.386658 1.42802e+06 
38 -0.05625 8.83423e-05 1231.26 273.127 5.02461 5.02407 -0.201637 -0.389934 1.42804e+06 
39 -0.05615 8.83426e-05 1231.26 273.125 5.0246 5.02413 -0.214676 -0.391693 1.42804e+06 
40 -0.05605 8.83425e-05 1231.26 273.127 5.02462 5.0242 -0.218766 -0.389421 1.4281e+06 
41 -0.05595 8.8343e-05 1231.26 273.127 5.02467 5.02431 -0.224366 -0.39327 1.42814e+06 
42 -0.05585 8.83428e-05 1231.26 273.126 5.02464 5.02428 -0.20286 -0.387499 1.42817e+06 
43 -0.05575 8.83427e-05 1231.26 273.125 5.02461 5.02419 -0.19118 -0.363655 1.42806e+06 
44 -0.05565 8.83426e-05 1231.26 273.125 5.02461 5.02416 -0.169679 -0.313773 1.42806e+06 
45 -0.05555 8.83422e-05 1231.26 273.126 5.02459 5.02412 -0.201981 -0.350604 1.42807e+06 
46 -0.05545 8.83432e-05 1231.26 273.127 5.02468 5.02424 -0.204172 -0.4071 1.42817e+06 
47 -0.05535 8.83424e-05 1231.26 273.127 5.02462 5.02424 -0.228884 -0.417233 1.42819e+06 
48 -0.05525 8.83429e-05 1231.26 273.126 5.02463 5.02426 -0.209238 -0.391442 1.42819e+06 
49 -0.05515 8.83421e-05 1231.26 273.127 5.0246 5.02418 -0.20529 -0.378928 1.42815e+06 
50 -0.05505 8.83425e-05 1231.26 273.129 5.02466 5.02421 -0.198223 -0.413763 1.42819e+06 
51 -0.05495 8.83428e-05 1231.26 273.126 5.02463 5.02425 -0.216215 -0.465725 1.42827e+06 
52 -0.05485 8.83423e-05 1231.26 273.125 5.02458 5.02415 -0.196381 -0.405558 1.42818e+06 
53 -0.05475 8.83424e-05 1231.26 273.126 5.02461 5.02412 -0.192739 -0.373456 1.42815e+06 
54 -0.05465 8.83423e-05 1231.26 273.124 5.02457 5.02414 -0.161751 -0.313537 1.4282e+06 
55 -0.05455 8.83421e-05 1231.26 273.124 5.02455 5.02411 -0.194778 -0.351544 1.42819e+06 
56 -0.05445 8.83425e-05 1231.26 273.125 5.02459 5.02422 -0.183642 -0.319993 1.42826e+06 
57 -0.05435 8.83419e-05 1231.26 273.125 5.02456 5.02418 -0.163847 -0.329496 1.42827e+06 
30 -0.05705 8.83422e-05 1231.27 273.126 5.02459 5.02377 -0.258375 -0.476638 1.42786e+06 
31 -0.05695 8.83422e-05 1231.27 273.126 5.0246 5.02389 -0.227526 -0.45066 1.42792e+06 
32 -0.05685 8.83419e-05 1231.26 273.124 5.02454 5.02376 -0.230037 -0.435589 1.42785e+06 
67 -0.05335 8.83425e-05 1231.26 273.121 5.02453 5.0239 -0.132848 -0.237935 1.42806e+06 
65 -0.05355 8.83431e-05 1231.26 273.125 5.02463 5.02411 -0.136751 -0.286512 1.42822e+06 
66 -0.05345 8.83419e-05 1231.27 273.124 5.02453 5.02387 -0.145632 -0.282726 1.42809e+06 
68 -0.05325 8.83421e-05 1231.26 273.127 5.02461 5.02401 -0.151481 -0.28077 1.42818e+06 
69 -0.05315 8.83424e-05 1231.26 273.123 5.02454 5.02402 -0.198094 -0.344076 1.42822e+06 
70 -0.05305 8.83424e-05 1231.26 273.124 5.02456 5.02402 -0.13906 -0.2567 1.42816e+06 
71 -0.05295 8.83427e-05 1231.26 273.124 5.02458 5.024 -0.12912 -0.250573 1.42817e+06 
72 -0.05285 8.83424e-05 1231.26 273.123 5.02454 5.02388 -0.133352 -0.276174 1.42814e+06 
73 -0.05275 8.83424e-05 1231.26 273.125 5.02459 5.02392 -0.134537 -0.260245 1.4282e+06 
74 -0.05265 8.83427e-05 1231.27 273.126 5.02462 5.02396 -0.134299 -0.262663 1.42819e+06 
75 -0.05255 8.83418e-05 1231.26 273.123 5.02452 5.02395 -0.168208 -0.309797 1.42823e+06 
76 -0.05245 8.8343e-05 1231.26 273.126 5.02464 5.02407 -0.135012 -0.23771 1.42827e+06 
77 -0.05235 8.83424e-05 1231.26 273.126 5.02461 5.02395 -0.162725 -0.267066 1.42824e+06 
78 -0.05225 8.83421e-05 1231.26 273.123 5.02453 5.02376 -0.0967013 -0.157492 1.42807e+06 
79 -0.05215 8.83419e-05 1231.26 273.125 5.02456 5.02382 -0.0982589 -0.199476 1.42807e+06 
80 -0.05205 8.83428e-05 1231.26 273.122 5.02456 5.02383 -0.099105 -0.211539 1.42808e+06 
81 -0.05195 8.83424e-05 1231.27 273.126 5.0246 5.02392 -0.122291 -0.252211 1.42817e+06 
82 -0.05185 8.83418e-05 1231.26 273.123 5.02452 5.0238 -0.108161 -0.194361 1.4281e+06 
83 -0.05175 8.83428e-05 1231.26 273.124 5.02459 5.02394 -0.118178 -0.277842 1.42818e+06 
84 -0.05165 8.83429e-05 1231.26 273.125 5.02462 5.02403 -0.17489 -0.373388 1.42832e+06 
85 -0.05155 8.83418e-05 1231.27 273.123 5.02452 5.0238 -0.127469 -0.251758 1.42813e+06 
58 -0.05425 8.83424e-05 1231.26 273.124 5.02457 5.02416 -0.210591 -0.386393 1.42826e+06 
59 -0.05415 8.8342e-05 1231.26 273.127 5.0246 5.02419 -0.174872 -0.329643 1.4283e+06 
60 -0.05405 8.83422e-05 1231.26 273.122 5.02452 5.02395 -0.173344 -0.304375 1.42816e+06 
61 -0.05395 8.83425e-05 1231.26 273.125 5.0246 5.02407 -0.176769 -0.331275 1.42828e+06 
62 -0.05385 8.83423e-05 1231.26 273.125 5.02459 5.02405 -0.196179 -0.346502 1.42823e+06 
63 -0.05375 8.83424e-05 1231.26 273.125 5.02458 5.02408 -0.17328 -0.323197 1.42824e+06 
64 -0.05365 8.83418e-05 1231.26 273.125 5.02456 5.02401 -0.223365 -0.407005 1.42825e+06 
100 -0.05005 8.8342e-05 1231.27 273.121 5.0245 5.02371 -0.0937327 0.00424722 1.42811e+06 
97 -0.05035 8.83426e-05 1231.27 273.121 5.02452 5.02371 -0.0558727 0.0126751 1.4281e+06 
98 -0.05025 8.83425e-05 1231.27 273.12 5.02451 5.02371 -0.0955005 -0.0488819 1.4281e+06 
99 -0.05015 8.83423e-05 1231.27 273.12 5.0245 5.02377 -0.00693883 0.109623 1.42807e+06 
101 -0.04995 8.83427e-05 1231.27 273.12 5.02451 5.02375 -0.0594603 0.0173798 1.4281e+06 
102 -0.04985 8.8341e-05 1231.27 273.121 5.02443 5.02373 -0.0715876 0.00262178 1.42814e+06 
103 -0.04975 8.8343e-05 1231.27 273.122 5.02456 5.02383 -0.0692571 0.0198767 1.42816e+06 
104 -0.04965 8.83418e-05 1231.27 273.121 5.02448 5.02374 -0.0852164 -0.0225668 1.42814e+06 
105 -0.04955 8.83424e-05 1231.27 273.123 5.02454 5.02386 -0.0931567 -0.0512493 1.42825e+06 
106 -0.04945 8.8342e-05 1231.27 273.121 5.02449 5.0238 -0.0653812 0.0221379 1.42815e+06 
107 -0.04935 8.83421e-05 1231.27 273.122 5.02451 5.02391 -0.0735735 -0.0141866 1.42827e+06 
108 -0.04925 8.83429e-05 1231.27 273.122 5.02457 5.02394 -0.0908867 -0.0322656 1.42823e+06 
109 -0.04915 8.83413e-05 1231.27 273.121 5.02446 5.02385 -0.0557601 0.0317792 1.42818e+06 
110 -0.04905 8.83422e-05 1231.27 273.123 5.02453 5.02388 -0.0343781 0.088947 1.42821e+06 
111 -0.04895 8.83422e-05 1231.27 273.121 5.02451 5.02375 -0.0551189 0.00804207 1.42818e+06 
112 -0.04885 8.83423e-05 1231.27 273.123 5.02455 5.02393 -0.114238 -0.128408 1.42836e+06 
113 -0.04875 8.83417e-05 1231.27 273.121 5.02447 5.02389 -0.0913641 -0.0796648 1.42832e+06 
86 -0.05145 8.83422e-05 1231.27 273.125 5.02458 5.02384 -0.14079 -0.248986 1.42816e+06 
87 -0.05135 8.83422e-05 1231.26 273.125 5.02458 5.02388 -0.150986 -0.260175 1.42821e+06 
88 -0.05125 8.8342e-05 1231.27 273.122 5.02452 5.02378 -0.14493 -0.238446 1.42815e+06 
89 -0.05115 8.83419e-05 1231.27 273.125 5.02456 5.02373 -0.110174 -0.155752 1.42814e+06 
90 -0.05105 8.83426e-05 1231.27 273.124 5.02459 5.0238 -0.162355 -0.267188 1.42823e+06 
91 -0.05095 8.83421e-05 1231.27 273.124 5.02455 5.0238 -0.132524 -0.223641 1.42818e+06 
92 -0.05085 8.83422e-05 1231.27 273.126 5.02459 5.02382 -0.132541 -0.204721 1.42824e+06 
93 -0.05075 8.83423e-05 1231.27 273.124 5.02456 5.02383 -0.140193 -0.191955 1.4282e+06 
94 -0.05065 8.83424e-05 1231.27 273.123 5.02455 5.02372 -0.0988963 -0.123939 1.42813e+06 
95 -0.05055 8.83421e-05 1231.27 273.122 5.02452 5.02367 -0.0683344 -0.0467315 1.4281e+06 
96 -0.05045 8.83415e-05 1231.27 273.119 5.02443 5.02356 -0.0837871 -0.0395726 1.42803e+06 
133 -0.04675 8.83418e-05 1231.27 273.123 5.02451 5.02384 -0.106462 -0.178841 1.42848e+06 
129 -0.04715 8.83424e-05 1231.27 273.122 5.02454 5.0239 -0.0823738 -0.0623931 1.42842e+06 
130 -0.04705 8.83414e-05 1231.27 273.122 5.02447 5.02384 -0.0648646 -0.107769 1.42839e+06 
131 -0.04695 8.83416e-05 1231.26 273.124 5.02452 5.02399 -0.0775341 -0.151995 1.42853e+06 
132 -0.04685 8.83419e-05 1231.27 273.123 5.02453 5.02398 -0.0911899 -0.171254 1.42855e+06 
134 -0.04665 8.83418e-05 1231.27 273.122 5.02449 5.02387 -0.069457 -0.124099 1.4285e+06 
135 -0.04655 8.83412e-05 1231.27 273.123 5.02449 5.02376 -0.0941782 -0.0857381 1.42848e+06 
136 -0.04645 8.83415e-05 1231.27 273.12 5.02444 5.02362 -0.0559614 -0.016725 1.42837e+06 
137 -0.04635 8.83414e-05 1231.27 273.121 5.02447 5.02353 -0.0356904 0.0418583 1.42829e+06 
138 -0.04625 8.83421e-05 1231.27 273.121 5.0245 5.02357 -0.0518023 0.0267685 1.42832e+06 
139 -0.04615 8.83406e-05 1231.27 273.12 5.02439 5.02346 -0.032488 0.0151105 1.4283e+06 
140 -0.04605 8.83417e-05 1231.27 273.121 5.02448 5.02366 -0.100123 -0.07912 1.42838e+06 
141 -0.04595 8.83414e-05 1231.27 273.123 5.02449 5.02366 -0.104574 -0.0771586 1.42838e+06 
114 -0.04865 8.83419e-05 1231.27 273.123 5.02453 5.02392 -0.107549 -0.129213 1.42837e+06 
115 -0.04855 8.83418e-05 1231.27 273.119 5.02444 5.02372 -0.0330097 0.0335559 1.42815e+06 
116 -0.04845 8.83421e-05 1231.27 273.121 5.0245 5.02374 -0.0345332 0.0372997 1.42817e+06 
117 -0.04835 8.83413e-05 1231.27 273.12 5.02443 5.02368 -0.041138 0.0476702 1.42816e+06 
118 -0.04825 8.83416e-05 1231.27 273.122 5.02449 5.02378 -0.0410915 0.0203461 1.42827e+06 
119 -0.04815 8.8342e-05 1231.27 273.119 5.02446 5.02375 -0.0640729 -0.0391979 1.42823e+06 
120 -0.04805 8.83412e-05 1231.27 273.122 5.02446 5.0238 -0.0595572 -0.00846736 1.42826e+06 
121 -0.04795 8.83418e-05 1231.27 273.123 5.02452 5.02394 -0.108533 -0.0687825 1.42833e+06 
122 -0.04785 8.83418e-05 1231.27 273.124 5.02454 5.02402 -0.0999383 -0.0910644 1.42837e+06 
123 -0.04775 8.83417e-05 1231.26 273.122 5.0245 5.02389 -0.11141 -0.127629 1.42829e+06 
124 -0.04765 8.83417e-05 1231.27 273.123 5.02451 5.02397 -0.0815979 -0.0758365 1.42835e+06 
125 -0.04755 8.83414e-05 1231.27 273.122 5.02447 5.02391 -0.0854077 -0.0883657 1.42834e+06 
126 -0.04745 8.8342e-05 1231.27 273.122 5.02451 5.02385 -0.0784897 -0.0670861 1.42833e+06 
127 -0.04735 8.83416e-05 1231.27 273.123 5.02451 5.02387 -0.076497 -0.0282715 1.42831e+06 
128 -0.04725 8.83412e-05 1231.27 273.123 5.02448 5.02381 -0.102192 -0.0569029 1.42834e+06 
166 -0.04345 8.83413e-05 1231.27 273.122 5.02447 5.02393 -0.0774487 -0.122644 1.42859e+06 
161 -0.04395 8.83418e-05 1231.27 273.122 5.02451 5.02395 -0.0691881 -0.165044 1.42858e+06 
162 -0.04385 8.83415e-05 1231.27 273.123 5.0245 5.024 -0.0836702 -0.15985 1.42862e+06 
163 -0.04375 8.83412e-05 1231.27 273.124 5.0245 5.02404 -0.103149 -0.189724 1.42864e+06 
164 -0.04365 8.83415e-05 1231.27 273.124 5.02453 5.02407 -0.123995 -0.224558 1.4287e+06 
165 -0.04355 8.83413e-05 1231.27 273.123 5.02448 5.02405 -0.121654 -0.223945 1.42869e+06 
167 -0.04335 8.83409e-05 1231.27 273.122 5.02444 5.02392 -0.052688 -0.0763071 1.42858e+06 
168 -0.04325 8.83413e-05 1231.27 273.12 5.02443 5.0239 -0.0512263 -0.0575035 1.42858e+06 
169 -0.04315 8.83414e-05 1231.27 273.122 5.02448 5.02395 -0.0542587 -0.0228066 1.42856e+06 
142 -0.04585 8.83413e-05 1231.27 273.123 5.02449 5.0237 -0.0694393 -0.0078683 1.42841e+06 
143 -0.04575 8.83416e-05 1231.27 273.121 5.02447 5.02367 -0.0956737 -0.0470782 1.42837e+06 
144 -0.04565 8.83407e-05 1231.27 273.123 5.02446 5.02364 -0.103349 -0.0867504 1.42841e+06 
145 -0.04555 8.83414e-05 1231.27 273.121 5.02445 5.02366 -0.0702957 -0.0419107 1.4284e+06 
146 -0.04545 8.83418e-05 1231.27 273.122 5.0245 5.02374 -0.0823822 -0.102378 1.42845e+06 
147 -0.04535 8.83406e-05 1231.27 273.123 5.02445 5.02379 -0.0958519 -0.139785 1.42851e+06 
148 -0.04525 8.83413e-05 1231.27 273.123 5.02449 5.02394 -0.137085 -0.223347 1.42858e+06 
149 -0.04515 8.8342e-05 1231.27 273.123 5.02452 5.02383 -0.0763512 -0.132083 1.42851e+06 
150 -0.04505 8.8341e-05 1231.27 273.122 5.02445 5.02379 -0.056796 -0.127247 1.42845e+06 
151 -0.04495 8.83414e-05 1231.27 273.124 5.02451 5.0239 -0.0674485 -0.1344 1.42856e+06 
152 -0.04485 8.8342e-05 1231.27 273.122 5.02451 5.02398 -0.0696382 -0.160487 1.42855e+06 
153 -0.04475 8.83418e-05 1231.27 273.122 5.0245 5.02405 -0.070272 -0.217214 1.42862e+06 
154 -0.04465 8.83408e-05 1231.27 273.122 5.02444 5.02399 -0.0893921 -0.229861 1.4286e+06 
155 -0.04455 8.83421e-05 1231.27 273.124 5.02456 5.02412 -0.0611058 -0.179525 1.42867e+06 
156 -0.04445 8.83417e-05 1231.27 273.121 5.02448 5.02388 -0.0545498 -0.148799 1.42852e+06 
157 -0.04435 8.83413e-05 1231.27 273.122 5.02446 5.02383 -0.0587135 -0.113862 1.42851e+06 
158 -0.04425 8.83416e-05 1231.27 273.125 5.02454 5.02398 -0.0779796 -0.177053 1.42859e+06 
159 -0.04415 8.83418e-05 1231.27 273.124 5.02454 5.02409 -0.133097 -0.257125 1.42868e+06 
160 -0.04405 8.83408e-05 1231.27 273.123 5.02445 5.02402 -0.10686 -0.203061 1.42864e+06 
193 -0.04075 8.83412e-05 1231.27 273.121 5.02444 5.02384 0.00741984 0.11252 1.42848e+06 
194 -0.04065 8.83413e-05 1231.27 273.121 5.02445 5.02385 -0.0115973 0.0492326 1.4285e+06 
195 -0.04055 8.83423e-05 1231.27 273.119 5.02447 5.02388 0.00422623 0.0665757 1.42846e+06 
196 -0.04045 8.83409e-05 1231.27 273.118 5.02438 5.02381 0.0176557 0.106845 1.42844e+06 
197 -0.04035 8.83414e-05 1231.27 273.119 5.02442 5.02381 0.021896 0.0936752 1.42845e+06 
170 -0.04305 8.8341e-05 1231.27 273.121 5.02443 5.02385 -0.0336034 0.00690962 1.42845e+06 
171 -0.04295 8.8341e-05 1231.27 273.121 5.02443 5.02391 -0.0109744 0.0169762 1.4285e+06 
172 -0.04285 8.83413e-05 1231.27 273.123 5.0245 5.02406 -0.0391675 -0.0607622 1.42862e+06 
173 -0.04275 8.83414e-05 1231.27 273.122 5.02447 5.02407 -0.0478823 -0.0740229 1.42862e+06 
174 -0.04265 8.8341e-05 1231.27 273.122 5.02446 5.02387 -0.0247431 -0.00231906 1.4285e+06 
175 -0.04255 8.83406e-05 1231.27 273.12 5.0244 5.0238 0.0137452 0.0358286 1.42844e+06 
176 -0.04245 8.83418e-05 1231.27 273.12 5.02446 5.02388 0.0142968 0.0449037 1.4284e+06 
177 -0.04235 8.83411e-05 1231.27 273.122 5.02447 5.02392 0.0054522 0.0363397 1.42851e+06 
178 -0.04225 8.8341e-05 1231.27 273.119 5.02439 5.02389 0.0351987 0.0383754 1.42846e+06 
179 -0.04215 8.83415e-05 1231.27 273.121 5.02446 5.02396 0.0185702 -0.00950959 1.42852e+06 
180 -0.04205 8.83417e-05 1231.27 273.121 5.02447 5.02397 0.0330507 0.0222473 1.42854e+06 
181 -0.04195 8.83412e-05 1231.27 273.12 5.02442 5.0239 0.0383711 0.0426812 1.42851e+06 
182 -0.04185 8.83413e-05 1231.27 273.122 5.02448 5.02399 -0.00545037 -0.0171061 1.42857e+06 
183 -0.04175 8.83415e-05 1231.27 273.123 5.02449 5.02409 -0.013381 -0.0770592 1.42865e+06 
184 -0.04165 8.83416e-05 1231.27 273.123 5.02451 5.02407 -0.0807172 -0.162478 1.42866e+06 
185 -0.04155 8.83415e-05 1231.27 273.123 5.02449 5.02403 -0.0391461 -0.0771726 1.42864e+06 
186 -0.04145 8.8341e-05 1231.27 273.123 5.02447 5.02404 -0.0871079 -0.127541 1.42866e+06 
187 -0.04135 8.83417e-05 1231.27 273.122 5.0245 5.02402 -0.0391914 -0.0421827 1.42863e+06 
188 -0.04125 8.83413e-05 1231.27 273.122 5.02447 5.02395 -0.0225953 -0.0239746 1.42859e+06 
189 -0.04115 8.83417e-05 1231.27 273.123 5.02451 5.02406 -0.0885416 -0.135686 1.42874e+06 
190 -0.04105 8.83411e-05 1231.27 273.122 5.02446 5.02396 -0.0345869 -0.026589 1.4286e+06 
191 -0.04095 8.83416e-05 1231.27 273.12 5.02446 5.02394 -0.00328088 0.0274904 1.42856e+06 
192 -0.04085 8.83418e-05 1231.27 273.119 5.02444 5.02384 -4.82311e-05 0.0378114 1.42848e+06 
200 -0.04005 8.83415e-05 1231.27 273.122 5.02448 5.02387 -0.0480479 0.00995672 1.42855e+06 
225 -0.03755 8.83419e-05 1231.27 273.126 5.02457 5.02442 -0.112614 -0.21804 1.42883e+06 
198 -0.04025 8.83419e-05 1231.27 273.12 5.02446 5.02392 0.00235122 0.0646312 1.42854e+06 
199 -0.04015 8.83411e-05 1231.27 273.12 5.02442 5.02383 -0.0132597 0.0420199 1.4285e+06 
201 -0.03995 8.83412e-05 1231.27 273.12 5.02442 5.02371 -0.0330256 0.0420866 1.42848e+06 
202 -0.03985 8.83416e-05 1231.27 273.121 5.02446 5.0238 -0.0810613 -0.011985 1.42854e+06 
203 -0.03975 8.83416e-05 1231.27 273.12 5.02446 5.02363 -0.041105 0.0611798 1.42844e+06 
204 -0.03965 8.83408e-05 1231.27 273.121 5.02442 5.02358 -0.0463087 0.0669269 1.4284e+06 
205 -0.03955 8.83415e-05 1231.27 273.121 5.02446 5.0237 -0.0556554 0.0361766 1.42849e+06 
206 -0.03945 8.83422e-05 1231.27 273.122 5.02452 5.02386 -0.0892249 -0.0169691 1.4286e+06 
207 -0.03935 8.83413e-05 1231.27 273.122 5.02447 5.02374 -0.0955665 -0.0203636 1.42859e+06 
208 -0.03925 8.83413e-05 1231.27 273.123 5.02449 5.02382 -0.100764 -0.0607054 1.42858e+06 
209 -0.03915 8.83419e-05 1231.28 273.123 5.02451 5.02394 -0.0911954 -0.0610408 1.42864e+06 
210 -0.03905 8.83416e-05 1231.27 273.122 5.02449 5.02386 -0.107097 -0.107439 1.42858e+06 
211 -0.03895 8.83417e-05 1231.27 273.124 5.02453 5.02407 -0.123107 -0.173843 1.42872e+06 
212 -0.03885 8.83415e-05 1231.27 273.122 5.02448 5.02399 -0.107902 -0.116553 1.42861e+06 
213 -0.03875 8.83421e-05 1231.27 273.125 5.02457 5.02418 -0.119025 -0.142875 1.42873e+06 
214 -0.03865 8.83423e-05 1231.27 273.124 5.02457 5.02416 -0.125921 -0.156922 1.4287e+06 
215 -0.03855 8.83416e-05 1231.27 273.124 5.02451 5.02416 -0.109649 -0.112482 1.42871e+06 
216 -0.03845 8.83417e-05 1231.27 273.123 5.02452 5.02408 -0.101245 -0.0610436 1.42867e+06 
217 -0.03835 8.83417e-05 1231.27 273.124 5.02453 5.02425 -0.0879212 -0.0840473 1.42866e+06 
218 -0.03825 8.83422e-05 1231.27 273.125 5.02458 5.02438 -0.116664 -0.128368 1.42876e+06 
219 -0.03815 8.83413e-05 1231.27 273.123 5.02449 5.02425 -0.141829 -0.136383 1.42869e+06 
220 -0.03805 8.83416e-05 1231.27 273.126 5.02457 5.02438 -0.120062 -0.124316 1.4288e+06 
221 -0.03795 8.83417e-05 1231.27 273.124 5.02453 5.02431 -0.139837 -0.160867 1.4287e+06 
222 -0.03785 8.83418e-05 1231.27 273.127 5.02459 5.02449 -0.132899 -0.179367 1.42882e+06 
223 -0.03775 8.83412e-05 1231.27 273.125 5.02452 5.02445 -0.13904 -0.239444 1.42884e+06 
224 -0.03765 8.83415e-05 1231.27 273.125 5.02453 5.02443 -0.155038 -0.280039 1.42885e+06 
233 -0.03675 8.8341e-05 1231.27 273.123 5.02448 5.02399 -0.0790778 -0.0254574 1.42872e+06 
226 -0.03745 8.83418e-05 1231.27 273.122 5.0245 5.02436 -0.114281 -0.21478 1.42876e+06 
227 -0.03735 8.83419e-05 1231.27 273.123 5.02453 5.02426 -0.105515 -0.146671 1.42872e+06 
228 -0.03725 8.83412e-05 1231.27 273.122 5.02446 5.0241 -0.0836205 -0.0986572 1.42865e+06 
229 -0.03715 8.83413e-05 1231.27 273.124 5.0245 5.02411 -0.0526315 -0.0289632 1.42864e+06 
230 -0.03705 8.83416e-05 1231.27 273.123 5.0245 5.02411 -0.0711873 -0.0723585 1.42865e+06 
231 -0.03695 8.83414e-05 1231.27 273.123 5.02449 5.02411 -0.0803441 -0.0474693 1.42869e+06 
232 -0.03685 8.8342e-05 1231.27 273.123 5.02453 5.02418 -0.108748 -0.108757 1.42882e+06 
234 -0.03665 8.83414e-05 1231.27 273.121 5.02447 5.02392 -0.0758777 -0.032723 1.42864e+06 
235 -0.03655 8.83416e-05 1231.27 273.123 5.02451 5.02405 -0.116257 -0.119309 1.42876e+06 
236 -0.03645 8.83421e-05 1231.27 273.124 5.02455 5.02409 -0.128658 -0.145754 1.4288e+06 
237 -0.03635 8.83414e-05 1231.27 273.124 5.02451 5.02398 -0.154946 -0.180829 1.42878e+06 
238 -0.03625 8.83418e-05 1231.27 273.125 5.02454 5.02399 -0.145123 -0.205119 1.42886e+06 
239 -0.03615 8.83415e-05 1231.27 273.126 5.02455 5.02408 -0.147468 -0.246635 1.4289e+06 
240 -0.03605 8.83417e-05 1231.27 273.124 5.02452 5.02411 -0.171768 -0.306533 1.42891e+06 
241 -0.03595 8.8342e-05 1231.27 273.125 5.02456 5.02423 -0.185761 -0.302395 1.42899e+06 
242 -0.03585 8.83419e-05 1231.27 273.124 5.02455 5.0242 -0.227663 -0.369705 1.42897e+06 
243 -0.03575 8.83421e-05 1231.27 273.127 5.02461 5.02443 -0.233378 -0.379352 1.42909e+06 
244 -0.03565 8.83417e-05 1231.27 273.127 5.02458 5.02427 -0.214197 -0.355185 1.42903e+06 
245 -0.03555 8.83419e-05 1231.27 273.124 5.02455 5.02411 -0.216254 -0.360017 1.42893e+06 
246 -0.03545 8.83418e-05 1231.27 273.126 5.02457 5.02416 -0.237661 -0.395105 1.42897e+06 
247 -0.03535 8.83415e-05 1231.27 273.127 5.02456 5.02416 -0.217152 -0.357462 1.42895e+06 
248 -0.03525 8.8342e-05 1231.27 273.124 5.02455 5.02419 -0.205875 -0.352306 1.42887e+06 
249 -0.03515 8.83409e-05 1231.27 273.125 5.02451 5.02421 -0.18339 -0.352764 1.42896e+06 
250 -0.03505 8.83425e-05 1231.27 273.128 5.02464 5.02445 -0.234102 -0.461124 1.42907e+06 
251 -0.03495 8.8341e-05 1231.27 273.125 5.02452 5.02439 -0.198423 -0.372867 1.42902e+06 
252 -0.03485 8.83423e-05 1231.27 273.128 5.02463 5.02439 -0.177156 -0.336958 1.42904e+06 
253 -0.03475 8.83417e-05 1231.27 273.124 5.02453 5.0244 -0.168947 -0.338089 1.42902e+06 
266 -0.03345 8.83426e-05 1231.27 273.124 5.02459 5.02438 -0.135873 -0.29939 1.42903e+06 
257 -0.03435 8.83415e-05 1231.27 273.127 5.02458 5.02444 -0.157842 -0.298289 1.42901e+06 
258 -0.03425 8.83419e-05 1231.27 273.125 5.02456 5.02441 -0.152584 -0.291651 1.42898e+06 
259 -0.03415 8.8342e-05 1231.27 273.126 5.02458 5.02433 -0.137864 -0.268612 1.42893e+06 
260 -0.03405 8.83411e-05 1231.27 273.125 5.02452 5.02437 -0.136846 -0.273111 1.42897e+06 
261 -0.03395 8.83422e-05 1231.27 273.127 5.02461 5.02449 -0.164698 -0.326513 1.42901e+06 
262 -0.03385 8.83413e-05 1231.27 273.125 5.02453 5.02432 -0.151621 -0.321944 1.42898e+06 
263 -0.03375 8.8342e-05 1231.27 273.125 5.02456 5.0245 -0.171839 -0.371508 1.42909e+06 
264 -0.03365 8.83417e-05 1231.27 273.125 5.02455 5.02443 -0.165918 -0.342733 1.42908e+06 
265 -0.03355 8.83419e-05 1231.27 273.124 5.02454 5.02437 -0.154511 -0.333507 1.42901e+06 
267 -0.03335 8.83417e-05 1231.27 273.124 5.02453 5.02436 -0.163486 -0.3508 1.42905e+06 
268 -0.03325 8.83418e-05 1231.27 273.126 5.02458 5.02448 -0.193718 -0.387732 1.42918e+06 
269 -0.03315 8.83425e-05 1231.27 273.126 5.02462 5.02458 -0.193547 -0.409592 1.42926e+06 
270 -0.03305 8.83418e-05 1231.27 273.123 5.02452 5.0244 -0.17406 -0.348474 1.42913e+06 
271 -0.03295 8.83419e-05 1231.27 273.123 5.02452 5.02428 -0.114667 -0.257868 1.42903e+06 
272 -0.03285 8.83421e-05 1231.27 273.124 5.02456 5.02432 -0.130897 -0.237607 1.42909e+06 
273 -0.03275 8.8341e-05 1231.27 273.122 5.02446 5.0242 -0.130085 -0.256779 1.42897e+06 
274 -0.03265 8.83422e-05 1231.27 273.124 5.02456 5.02435 -0.116094 -0.231155 1.42907e+06 
275 -0.03255 8.83413e-05 1231.27 273.123 5.02448 5.02425 -0.125447 -0.22729 1.42903e+06 
276 -0.03245 8.83413e-05 1231.27 273.121 5.02446 5.02417 -0.0922643 -0.13918 1.42899e+06 
277 -0.03235 8.83413e-05 1231.27 273.123 5.02448 5.0242 -0.105604 -0.157632 1.429e+06 
278 -0.03225 8.83419e-05 1231.27 273.125 5.02456 5.02429 -0.158378 -0.249942 1.42919e+06 
279 -0.03215 8.83415e-05 1231.27 273.122 5.02447 5.02411 -0.147842 -0.262801 1.4291e+06 
280 -0.03205 8.83411e-05 1231.27 273.122 5.02445 5.02408 -0.0835282 -0.159044 1.429e+06 
281 -0.03195 8.83403e-05 1231.27 273.122 5.02442 5.02407 -0.0917914 -0.195974 1.42902e+06 
254 -0.03465 8.83413e-05 1231.27 273.127 5.02456 5.02439 -0.176159 -0.333605 1.42905e+06 
255 -0.03455 8.83408e-05 1231.27 273.125 5.0245 5.02436 -0.184188 -0.366199 1.42903e+06 
256 -0.03445 8.83424e-05 1231.27 273.128 5.02463 5.02455 -0.188627 -0.392606 1.42909e+06 
299 -0.03015 8.8342e-05 1231.27 273.132 5.02469 5.02475 -0.373505 -0.58813 1.42987e+06 
289 -0.03115 8.83417e-05 1231.27 273.127 5.02459 5.02473 -0.286583 -0.560154 1.42956e+06 
290 -0.03105 8.83421e-05 1231.27 273.127 5.02462 5.02464 -0.259974 -0.542129 1.42951e+06 
291 -0.03095 8.83412e-05 1231.27 273.128 5.02457 5.02455 -0.270345 -0.535181 1.42947e+06 
292 -0.03085 8.83417e-05 1231.27 273.129 5.02463 5.02468 -0.296145 -0.567119 1.42957e+06 
293 -0.03075 8.83415e-05 1231.27 273.129 5.02461 5.0246 -0.304334 -0.515128 1.42953e+06 
294 -0.03065 8.83419e-05 1231.27 273.129 5.02463 5.02468 -0.303233 -0.516499 1.42964e+06 
295 -0.03055 8.83425e-05 1231.27 273.128 5.02465 5.02462 -0.318803 -0.520267 1.42959e+06 
296 -0.03045 8.83411e-05 1231.27 273.129 5.02459 5.02458 -0.268977 -0.43706 1.42953e+06 
297 -0.03035 8.83423e-05 1231.27 273.13 5.02468 5.02465 -0.297636 -0.488513 1.42966e+06 
298 -0.03025 8.83421e-05 1231.27 273.133 5.02471 5.02471 -0.377758 -0.598307 1.42979e+06 
300 -0.03005 8.83412e-05 1231.27 273.134 5.02469 5.02482 -0.420752 -0.680888 1.42998e+06 
301 -0.02995 8.83419e-05 1231.27 273.133 5.0247 5.02468 -0.416103 -0.621513 1.42986e+06 
302 -0.02985 8.83414e-05 1231.27 273.134 5.02469 5.02463 -0.396076 -0.580898 1.42992e+06 
303 -0.02975 8.83418e-05 1231.27 273.131 5.02466 5.0247 -0.416309 -0.635669 1.42992e+06 
304 -0.02965 8.83415e-05 1231.27 273.135 5.02473 5.02471 -0.387561 -0.601767 1.42996e+06 
305 -0.02955 8.83418e-05 1231.27 273.132 5.02469 5.02468 -0.39393 -0.619351 1.42994e+06 
306 -0.02945 8.83414e-05 1231.27 273.132 5.02466 5.02463 -0.399079 -0.619676 1.42997e+06 
307 -0.02935 8.83416e-05 1231.27 273.132 5.02468 5.02459 -0.382304 -0.562673 1.42998e+06 
308 -0.02925 8.83409e-05 1231.27 273.134 5.02467 5.02465 -0.415444 -0.635031 1.43007e+06 
309 -0.02915 8.83423e-05 1231.27 273.131 5.02468 5.02466 -0.394794 -0.594752 1.43005e+06 
310 -0.02905 8.8342e-05 1231.27 273.133 5.0247 5.0247 -0.432811 -0.623972 1.4301e+06 
282 -0.03185 8.83416e-05 1231.27 273.124 5.02452 5.02426 -0.139338 -0.261972 1.42912e+06 
283 -0.03175 8.83411e-05 1231.27 273.123 5.02448 5.0243 -0.171126 -0.288301 1.42916e+06 
284 -0.03165 8.8341e-05 1231.27 273.127 5.02454 5.02445 -0.206896 -0.381228 1.42932e+06 
285 -0.03155 8.83417e-05 1231.27 273.127 5.02459 5.0245 -0.247068 -0.490412 1.42939e+06 
286 -0.03145 8.83419e-05 1231.26 273.128 5.02462 5.02466 -0.25813 -0.518937 1.42946e+06 
287 -0.03135 8.83416e-05 1231.27 273.129 5.02462 5.02471 -0.29605 -0.609863 1.42958e+06 
288 -0.03125 8.83411e-05 1231.27 273.129 5.0246 5.02457 -0.238763 -0.474625 1.42946e+06 
332 -0.02685 8.83415e-05 1231.26 273.145 5.02491 5.02516 -0.788311 -1.16364 1.43176e+06 
321 -0.02795 8.83412e-05 1231.27 273.139 5.02477 5.02485 -0.549941 -0.880755 1.4308e+06 
322 -0.02785 8.83414e-05 1231.26 273.135 5.02472 5.02485 -0.51129 -0.864606 1.43079e+06 
323 -0.02775 8.83411e-05 1231.27 273.137 5.02474 5.02487 -0.559069 -0.897573 1.43089e+06 
324 -0.02765 8.83419e-05 1231.27 273.14 5.02484 5.02497 -0.566541 -0.920849 1.43104e+06 
325 -0.02755 8.83414e-05 1231.27 273.138 5.02476 5.02488 -0.567372 -0.911017 1.43103e+06 
326 -0.02745 8.83417e-05 1231.27 273.139 5.02481 5.02492 -0.592022 -0.948973 1.43111e+06 
327 -0.02735 8.83412e-05 1231.27 273.14 5.02479 5.02497 -0.673468 -1.07295 1.43127e+06 
328 -0.02725 8.83427e-05 1231.26 273.143 5.02494 5.02512 -0.659328 -1.08769 1.43137e+06 
329 -0.02715 8.8341e-05 1231.26 273.142 5.02481 5.02509 -0.694964 -1.13692 1.43146e+06 
330 -0.02705 8.83418e-05 1231.26 273.143 5.02488 5.02513 -0.719698 -1.13508 1.43154e+06 
331 -0.02695 8.83423e-05 1231.26 273.144 5.02493 5.02521 -0.782739 -1.1923 1.43177e+06 
333 -0.02675 8.83413e-05 1231.26 273.143 5.02486 5.02505 -0.770296 -1.09904 1.43171e+06 
334 -0.02665 8.83419e-05 1231.26 273.145 5.02493 5.02515 -0.840361 -1.24519 1.43194e+06 
335 -0.02655 8.83414e-05 1231.26 273.149 5.02497 5.02529 -0.935443 -1.39871 1.43223e+06 
336 -0.02645 8.83419e-05 1231.26 273.151 5.02503 5.02544 -0.954584 -1.40106 1.43239e+06 
337 -0.02635 8.83423e-05 1231.26 273.152 5.02508 5.02559 -1.02262 -1.50555 1.43263e+06 
338 -0.02625 8.83421e-05 1231.26 273.153 5.02509 5.02564 -1.06678 -1.59622 1.43275e+06 
311 -0.02895 8.83415e-05 1231.27 273.133 5.02469 5.02463 -0.383421 -0.55029 1.43009e+06 
312 -0.02885 8.83414e-05 1231.27 273.132 5.02466 5.02456 -0.349672 -0.519777 1.43009e+06 
313 -0.02875 8.83418e-05 1231.27 273.133 5.0247 5.02459 -0.350897 -0.517713 1.43013e+06 
314 -0.02865 8.83416e-05 1231.27 273.131 5.02466 5.02454 -0.363873 -0.517299 1.43016e+06 
315 -0.02855 8.83411e-05 1231.27 273.132 5.02464 5.02456 -0.288784 -0.394746 1.43013e+06 