ITEM: TIMESTEP
30000
ITEM: NUMBER OF CELLS
900
ITEM: BOX BOUNDS os pp pp
-0.06 0.03
-0.001 0.001
-0.001 0.001
ITEM: CELLS id f_1[1] f_1[2] f_1[3] f_1[4] f_1[5] f_1[6] f_1[7] f_1[8] f_1[9] 
1 -0.05995 8.83408e-05 1231.28 273.118 5.02437 5.02314 -0.0932662 -0.201927 1.42679e+06 
2 -0.05985 8.83416e-05 1231.28 273.119 5.02444 5.02325 -0.161179 -0.339158 1.42699e+06 
3 -0.05975 8.83408e-05 1231.28 273.12 5.02441 5.02338 -0.196586 -0.438652 1.42714e+06 
4 -0.05965 8.8342e-05 1231.28 273.124 5.02454 5.02362 -0.232849 -0.516839 1.42735e+06 
5 -0.05955 8.8341e-05 1231.27 273.123 5.02447 5.0236 -0.270906 -0.557744 1.4274e+06 
6 -0.05945 8.83416e-05 1231.27 273.124 5.02452 5.02372 -0.294537 -0.571631 1.42751e+06 
7 -0.05935 8.8341e-05 1231.28 273.123 5.02447 5.02373 -0.324421 -0.62359 1.4276e+06 
8 -0.05925 8.83416e-05 1231.27 273.126 5.02457 5.02395 -0.339974 -0.686173 1.42769e+06 
9 -0.05915 8.83415e-05 1231.27 273.125 5.02454 5.02406 -0.354574 -0.736504 1.42778e+06 
10 -0.05905 8.83417e-05 1231.27 273.126 5.02458 5.02406 -0.358743 -0.74483 1.42776e+06 
11 -0.05895 8.83413e-05 1231.27 273.126 5.02454 5.02399 -0.363103 -0.758059 1.42779e+06 
12 -0.05885 8.83424e-05 1231.27 273.127 5.02463 5.02421 -0.413399 -0.848872 1.42796e+06 
13 -0.05875 8.8342e-05 1231.27 273.126 5.02459 5.0241 -0.431053 -0.869624 1.42791e+06 
14 -0.05865 8.83414e-05 1231.27 273.128 5.02458 5.02411 -0.428589 -0.807907 1.42795e+06 
15 -0.05855 8.83416e-05 1231.27 273.13 5.02463 5.02424 -0.457079 -0.896951 1.42799e+06 
16 -0.05845 8.8342e-05 1231.27 273.128 5.02461 5.0241 -0.443762 -0.859844 1.42799e+06 
17 -0.05835 8.83418e-05 1231.27 273.128 5.02461 5.02404 -0.418761 -0.815922 1.4279e+06 
18 -0.05825 8.83416e-05 1231.27 273.127 5.02458 5.024 -0.420422 -0.830157 1.42793e+06 
19 -0.05815 8.83419e-05 1231.27 273.127 5.02459 5.02388 -0.390313 -0.74797 1.42785e+06 
20 -0.05805 8.8341e-05 1231.27 273.125 5.02452 5.02386 -0.385729 -0.757338 1.42786e+06 
21 -0.05795 8.83418e-05 1231.27 273.125 5.02456 5.02385 -0.346662 -0.662133 1.42782e+06 
22 -0.05785 8.8341e-05 1231.27 273.124 5.02448 5.02377 -0.35304 -0.645694 1.42775e+06 
23 -0.05775 8.83406e-05 1231.27 273.126 5.0245 5.02374 -0.342293 -0.629675 1.42777e+06 
24 -0.05765 8.83421e-05 1231.27 273.125 5.02458 5.02396 -0.361891 -0.655321 1.42791e+06 
25 -0.05755 8.83409e-05 1231.27 273.125 5.02451 5.02391 -0.365407 -0.667966 1.42792e+06 
26 -0.05745 8.83418e-05 1231.27 273.124 5.02453 5.02388 -0.328229 -0.608008 1.42789e+06 
27 -0.05735 8.83414e-05 1231.27 273.124 5.02451 5.02378 -0.345825 -0.613402 1.42788e+06 
28 -0.05725 8.83417e-05 1231.27 273.127 5.02458 5.02394 -0.386908 -0.670109 1.42799e+06 
29 -0.05715 8.83415e-05 1231.27 273.127 5.02457 5.02413 -0.427032 -0.757493 1.42808e+06 
34 -0.05665 8.83416e-05 1231.27 273.125 5.02455 5.02422 -0.398011 -0.742079 1.42817e+06 
33 -0.05675 8.83422e-05 1231.27 273.128 5.02463 5.02434 -0.428495 -0.793624 1.42822e+06 
35 -0.05655 8.83417e-05 1231.27 273.126 5.02456 5.02425 -0.432375 -0.801398 1.42822e+06 
36 -0.05645 8.83422e-05 1231.27 273.126 5.02459 5.02421 -0.369637 -0.699638 1.42819e+06 
37 -0.05635 8.83417e-05 1231.27 273.125 5.02455 5.02417 -0.397728 -0.720361 1.42817e+06 
38 -0.05625 8.83419e-05 1231.27 273.128 5.02461 5.02433 -0.402278 -0.734415 1.42835e+06 
39 -0.05615 8.83412e-05 1231.27 273.125 5.02452 5.02406 -0.379382 -0.687042 1.42817e+06 
40 -0.05605 8.83421e-05 1231.27 273.126 5.02459 5.02419 -0.416152 -0.733169 1.42827e+06 
41 -0.05595 8.83416e-05 1231.27 273.125 5.02455 5.0241 -0.390196 -0.67038 1.42824e+06 
42 -0.05585 8.83423e-05 1231.27 273.126 5.02459 5.02416 -0.406995 -0.716128 1.42829e+06 
43 -0.05575 8.8342e-05 1231.27 273.128 5.02461 5.02428 -0.43406 -0.796841 1.42838e+06 
44 -0.05565 8.83421e-05 1231.27 273.128 5.02463 5.02425 -0.421058 -0.772774 1.42838e+06 
45 -0.05555 8.83412e-05 1231.27 273.126 5.02453 5.024 -0.389672 -0.678346 1.42823e+06 
46 -0.05545 8.83412e-05 1231.27 273.125 5.02451 5.02393 -0.370927 -0.632805 1.42822e+06 
47 -0.05535 8.8342e-05 1231.27 273.124 5.02455 5.02395 -0.384779 -0.61967 1.42824e+06 
48 -0.05525 8.83409e-05 1231.27 273.123 5.02447 5.02386 -0.378404 -0.593831 1.42815e+06 
49 -0.05515 8.83411e-05 1231.28 273.123 5.02448 5.02383 -0.321534 -0.480477 1.42812e+06 
50 -0.05505 8.83415e-05 1231.27 273.124 5.02451 5.02389 -0.342845 -0.537041 1.42812e+06 
51 -0.05495 8.83409e-05 1231.27 273.121 5.02443 5.02385 -0.326917 -0.540913 1.42819e+06 
52 -0.05485 8.83418e-05 1231.28 273.124 5.02453 5.02385 -0.315861 -0.518109 1.42815e+06 
53 -0.05475 8.83408e-05 1231.28 273.12 5.02441 5.0237 -0.28179 -0.455327 1.42802e+06 
54 -0.05465 8.83413e-05 1231.28 273.121 5.02445 5.02381 -0.29526 -0.468526 1.42812e+06 
55 -0.05455 8.83407e-05 1231.27 273.121 5.02443 5.02383 -0.336755 -0.564207 1.4282e+06 
56 -0.05445 8.83413e-05 1231.27 273.121 5.02445 5.02399 -0.263064 -0.42999 1.42823e+06 
57 -0.05435 8.83413e-05 1231.28 273.12 5.02443 5.02391 -0.290787 -0.501965 1.42819e+06 
30 -0.05705 8.83425e-05 1231.27 273.125 5.02459 5.02405 -0.428144 -0.752275 1.42804e+06 
31 -0.05695 8.83418e-05 1231.27 273.127 5.0246 5.02415 -0.445986 -0.798156 1.42816e+06 
32 -0.05685 8.83416e-05 1231.27 273.128 5.02459 5.02428 -0.428258 -0.787055 1.42822e+06 
67 -0.05335 8.83411e-05 1231.27 273.122 5.02446 5.02412 -0.327498 -0.592682 1.42845e+06 
65 -0.05355 8.83404e-05 1231.27 273.122 5.02441 5.02396 -0.317724 -0.539062 1.42836e+06 
66 -0.05345 8.83409e-05 1231.27 273.121 5.02443 5.02394 -0.318804 -0.54684 1.42832e+06 
68 -0.05325 8.83414e-05 1231.27 273.122 5.02448 5.02411 -0.322146 -0.560537 1.42844e+06 
69 -0.05315 8.8341e-05 1231.27 273.12 5.02442 5.02398 -0.284147 -0.514107 1.42835e+06 
70 -0.05305 8.83404e-05 1231.28 273.121 5.0244 5.02391 -0.285991 -0.493801 1.42833e+06 
71 -0.05295 8.83407e-05 1231.28 273.119 5.02439 5.02386 -0.279207 -0.478121 1.42831e+06 
72 -0.05285 8.83409e-05 1231.27 273.121 5.02443 5.02396 -0.284242 -0.494911 1.42841e+06 
73 -0.05275 8.83404e-05 1231.28 273.119 5.02436 5.02377 -0.267171 -0.409551 1.42831e+06 
74 -0.05265 8.83409e-05 1231.27 273.121 5.02443 5.0239 -0.275769 -0.445036 1.42835e+06 
75 -0.05255 8.83409e-05 1231.28 273.12 5.02442 5.02389 -0.246664 -0.404013 1.42836e+06 
76 -0.05245 8.83411e-05 1231.28 273.119 5.0244 5.02382 -0.246646 -0.426592 1.42837e+06 
77 -0.05235 8.83412e-05 1231.28 273.12 5.02442 5.02385 -0.23053 -0.376443 1.42837e+06 
78 -0.05225 8.83406e-05 1231.28 273.116 5.02432 5.02381 -0.226286 -0.370094 1.42836e+06 
79 -0.05215 8.83414e-05 1231.28 273.119 5.02442 5.02386 -0.269552 -0.424371 1.42839e+06 
80 -0.05205 8.83407e-05 1231.28 273.119 5.02439 5.02389 -0.216971 -0.324307 1.42838e+06 
81 -0.05195 8.83409e-05 1231.27 273.12 5.02441 5.02393 -0.209986 -0.349406 1.42838e+06 
82 -0.05185 8.83411e-05 1231.28 273.118 5.02438 5.02383 -0.185725 -0.32094 1.42827e+06 
83 -0.05175 8.83418e-05 1231.28 273.115 5.02437 5.02385 -0.170466 -0.284359 1.42832e+06 
84 -0.05165 8.83408e-05 1231.27 273.118 5.02437 5.02386 -0.202851 -0.31369 1.42834e+06 
85 -0.05155 8.83408e-05 1231.28 273.117 5.02436 5.02379 -0.187864 -0.258834 1.42828e+06 
58 -0.05425 8.83409e-05 1231.28 273.121 5.02442 5.02396 -0.261191 -0.478005 1.42824e+06 
59 -0.05415 8.83405e-05 1231.27 273.122 5.02442 5.02396 -0.297209 -0.551074 1.42826e+06 
60 -0.05405 8.8341e-05 1231.27 273.12 5.02443 5.02396 -0.279707 -0.508424 1.42829e+06 
61 -0.05395 8.83409e-05 1231.28 273.12 5.02441 5.02393 -0.310033 -0.54189 1.42831e+06 
62 -0.05385 8.83407e-05 1231.27 273.123 5.02446 5.024 -0.266455 -0.456872 1.42833e+06 
63 -0.05375 8.83412e-05 1231.27 273.12 5.02442 5.02394 -0.295874 -0.533195 1.42831e+06 
64 -0.05365 8.83408e-05 1231.27 273.121 5.02442 5.02398 -0.307767 -0.529037 1.42838e+06 
100 -0.05005 8.83421e-05 1231.27 273.119 5.02447 5.02395 -0.228905 -0.285932 1.4284e+06 
97 -0.05035 8.83416e-05 1231.27 273.118 5.02441 5.02391 -0.254969 -0.271351 1.42835e+06 
98 -0.05025 8.83424e-05 1231.28 273.118 5.02446 5.02396 -0.233339 -0.263761 1.42838e+06 
99 -0.05015 8.83416e-05 1231.27 273.119 5.02444 5.02408 -0.271654 -0.338853 1.42851e+06 
101 -0.04995 8.83417e-05 1231.28 273.117 5.0244 5.02387 -0.194325 -0.23557 1.42834e+06 
102 -0.04985 8.83414e-05 1231.28 273.117 5.02438 5.02391 -0.172458 -0.187251 1.42833e+06 
103 -0.04975 8.83415e-05 1231.27 273.117 5.02439 5.02391 -0.161967 -0.136362 1.42831e+06 
104 -0.04965 8.83413e-05 1231.28 273.118 5.02439 5.0239 -0.17566 -0.189749 1.42826e+06 
105 -0.04955 8.83416e-05 1231.28 273.117 5.0244 5.02397 -0.135117 -0.123318 1.42829e+06 
106 -0.04945 8.83414e-05 1231.27 273.116 5.02437 5.02393 -0.149681 -0.207948 1.42835e+06 
107 -0.04935 8.83419e-05 1231.27 273.119 5.02444 5.02405 -0.134091 -0.174471 1.42839e+06 
108 -0.04925 8.83411e-05 1231.27 273.114 5.02431 5.0239 -0.122476 -0.164523 1.42829e+06 
109 -0.04915 8.83415e-05 1231.27 273.117 5.02439 5.02402 -0.105108 -0.164971 1.42831e+06 
110 -0.04905 8.83414e-05 1231.28 273.116 5.02436 5.02391 -0.105539 -0.165472 1.42829e+06 
111 -0.04895 8.83413e-05 1231.27 273.116 5.02435 5.02389 -0.107717 -0.182027 1.42828e+06 
112 -0.04885 8.83418e-05 1231.28 273.115 5.02437 5.0239 -0.124435 -0.178553 1.42831e+06 
113 -0.04875 8.8342e-05 1231.28 273.118 5.02444 5.02405 -0.136993 -0.207591 1.42838e+06 
86 -0.05145 8.83416e-05 1231.28 273.12 5.02445 5.02388 -0.20609 -0.255541 1.42834e+06 
87 -0.05135 8.83414e-05 1231.27 273.119 5.02442 5.02385 -0.252576 -0.295401 1.42835e+06 
88 -0.05125 8.83417e-05 1231.28 273.119 5.02443 5.02396 -0.244336 -0.301442 1.42837e+06 
89 -0.05115 8.83413e-05 1231.28 273.12 5.02444 5.02402 -0.245222 -0.278289 1.42838e+06 
90 -0.05105 8.83418e-05 1231.28 273.12 5.02446 5.024 -0.248276 -0.295826 1.42835e+06 
91 -0.05095 8.8341e-05 1231.27 273.121 5.02444 5.02408 -0.26066 -0.355574 1.42843e+06 
92 -0.05085 8.83419e-05 1231.27 273.119 5.02445 5.02406 -0.24579 -0.283934 1.42835e+06 
93 -0.05075 8.83413e-05 1231.27 273.119 5.02442 5.02398 -0.261539 -0.260446 1.42835e+06 
94 -0.05065 8.83419e-05 1231.28 273.12 5.02447 5.02399 -0.283609 -0.290637 1.4284e+06 
95 -0.05055 8.83422e-05 1231.28 273.12 5.02449 5.02405 -0.276667 -0.258705 1.42845e+06 
96 -0.05045 8.83412e-05 1231.27 273.12 5.02443 5.02388 -0.256185 -0.252181 1.42836e+06 
133 -0.04675 8.83417e-05 1231.28 273.114 5.02435 5.0239 -0.0462025 -0.19275 1.42835e+06 
129 -0.04715 8.83416e-05 1231.28 273.116 5.02438 5.02404 -0.123734 -0.363737 1.42846e+06 
130 -0.04705 8.83409e-05 1231.28 273.116 5.02433 5.02389 -0.0753346 -0.234771 1.42834e+06 
131 -0.04695 8.83411e-05 1231.28 273.114 5.02432 5.02389 -0.113276 -0.292943 1.42835e+06 
132 -0.04685 8.83418e-05 1231.28 273.116 5.02439 5.02398 -0.0712487 -0.252141 1.42841e+06 
134 -0.04665 8.83416e-05 1231.28 273.115 5.02435 5.02399 -0.0459863 -0.224953 1.42844e+06 
135 -0.04655 8.83414e-05 1231.27 273.115 5.02435 5.02402 -0.0843107 -0.311066 1.42848e+06 
136 -0.04645 8.83412e-05 1231.27 273.115 5.02433 5.02411 -0.084632 -0.314695 1.42851e+06 
137 -0.04635 8.83422e-05 1231.27 273.115 5.02439 5.02408 -0.058434 -0.305096 1.42845e+06 
138 -0.04625 8.83425e-05 1231.27 273.115 5.02441 5.02413 -0.039357 -0.277999 1.42845e+06 
139 -0.04615 8.83413e-05 1231.28 273.114 5.02431 5.02404 -0.0712163 -0.352998 1.42845e+06 
140 -0.04605 8.83424e-05 1231.27 273.115 5.02441 5.02416 -0.107456 -0.401363 1.42852e+06 
141 -0.04595 8.83423e-05 1231.27 273.116 5.02442 5.02421 -0.121681 -0.465618 1.42857e+06 
114 -0.04865 8.83418e-05 1231.27 273.118 5.02442 5.0241 -0.151287 -0.265945 1.42845e+06 
115 -0.04855 8.83419e-05 1231.27 273.119 5.02446 5.02423 -0.119935 -0.220599 1.4285e+06 
116 -0.04845 8.83422e-05 1231.27 273.118 5.02444 5.0241 -0.131131 -0.254242 1.42847e+06 
117 -0.04835 8.83417e-05 1231.28 273.116 5.02439 5.02402 -0.128334 -0.244844 1.42843e+06 
118 -0.04825 8.83418e-05 1231.28 273.115 5.02436 5.02393 -0.104525 -0.185512 1.42839e+06 
119 -0.04815 8.83417e-05 1231.28 273.119 5.02444 5.02397 -0.126773 -0.22522 1.42842e+06 
120 -0.04805 8.83415e-05 1231.27 273.117 5.02438 5.02406 -0.148156 -0.320922 1.42852e+06 
121 -0.04795 8.83426e-05 1231.27 273.118 5.02447 5.02418 -0.160266 -0.36963 1.42859e+06 
122 -0.04785 8.83416e-05 1231.27 273.12 5.02444 5.02416 -0.13241 -0.294847 1.42853e+06 
123 -0.04775 8.83409e-05 1231.28 273.116 5.02434 5.02394 -0.127375 -0.330454 1.42845e+06 
124 -0.04765 8.83422e-05 1231.28 273.119 5.02446 5.02414 -0.123084 -0.311859 1.42854e+06 
125 -0.04755 8.83414e-05 1231.28 273.116 5.02436 5.02393 -0.112056 -0.300326 1.42842e+06 
126 -0.04745 8.83416e-05 1231.28 273.118 5.02441 5.02403 -0.123828 -0.344003 1.42848e+06 
127 -0.04735 8.83414e-05 1231.27 273.119 5.02442 5.02415 -0.157463 -0.463967 1.42858e+06 
128 -0.04725 8.83417e-05 1231.28 273.116 5.02438 5.02403 -0.120492 -0.382179 1.42849e+06 
166 -0.04345 8.8342e-05 1231.27 273.118 5.02443 5.0245 -0.170348 -0.438504 1.42875e+06 
161 -0.04395 8.83422e-05 1231.27 273.116 5.02441 5.0243 -0.136977 -0.302346 1.42861e+06 
162 -0.04385 8.8342e-05 1231.27 273.117 5.02441 5.02433 -0.13613 -0.323372 1.42862e+06 
163 -0.04375 8.83417e-05 1231.27 273.117 5.02439 5.02434 -0.144993 -0.36952 1.42866e+06 
164 -0.04365 8.8342e-05 1231.27 273.115 5.02438 5.02431 -0.135262 -0.358644 1.42861e+06 
165 -0.04355 8.8342e-05 1231.27 273.117 5.02442 5.02445 -0.149048 -0.380987 1.4287e+06 
167 -0.04335 8.83417e-05 1231.27 273.118 5.02442 5.02445 -0.171713 -0.450839 1.42876e+06 
168 -0.04325 8.83421e-05 1231.27 273.115 5.02438 5.02435 -0.113475 -0.325169 1.42862e+06 
169 -0.04315 8.83422e-05 1231.27 273.115 5.02438 5.02432 -0.144374 -0.330922 1.42862e+06 
142 -0.04585 8.83421e-05 1231.27 273.115 5.02439 5.0242 -0.104352 -0.35457 1.42848e+06 
143 -0.04575 8.83418e-05 1231.27 273.114 5.02434 5.02413 -0.0804627 -0.326386 1.42844e+06 
144 -0.04565 8.83429e-05 1231.27 273.114 5.02442 5.02419 -0.1183 -0.354192 1.42852e+06 
145 -0.04555 8.83419e-05 1231.27 273.119 5.02445 5.02436 -0.13356 -0.369549 1.42862e+06 
146 -0.04545 8.83423e-05 1231.27 273.116 5.02441 5.02426 -0.188097 -0.42332 1.42863e+06 
147 -0.04535 8.83425e-05 1231.27 273.119 5.02448 5.0244 -0.178651 -0.396929 1.42871e+06 
148 -0.04525 8.83423e-05 1231.27 273.117 5.02443 5.02422 -0.144443 -0.335297 1.4286e+06 
149 -0.04515 8.83419e-05 1231.28 273.115 5.02437 5.02419 -0.133167 -0.349835 1.42855e+06 
150 -0.04505 8.83425e-05 1231.27 273.117 5.02444 5.02428 -0.122447 -0.305013 1.42859e+06 
151 -0.04495 8.83424e-05 1231.27 273.115 5.02441 5.02425 -0.159082 -0.343152 1.42856e+06 
152 -0.04485 8.83427e-05 1231.27 273.116 5.02443 5.0243 -0.100727 -0.266846 1.42855e+06 
153 -0.04475 8.83422e-05 1231.27 273.116 5.02441 5.02423 -0.125212 -0.29044 1.42854e+06 
154 -0.04465 8.83423e-05 1231.27 273.115 5.02439 5.02426 -0.100847 -0.258082 1.42852e+06 
155 -0.04455 8.83426e-05 1231.27 273.115 5.02441 5.02415 -0.0684911 -0.178395 1.42845e+06 
156 -0.04445 8.83417e-05 1231.27 273.111 5.02428 5.02405 -0.0473102 -0.164222 1.42838e+06 
157 -0.04435 8.83425e-05 1231.27 273.115 5.02442 5.02424 -0.063299 -0.196412 1.4285e+06 
158 -0.04425 8.83415e-05 1231.27 273.114 5.02434 5.02416 -0.0576751 -0.154662 1.42848e+06 
159 -0.04415 8.8342e-05 1231.27 273.112 5.02432 5.02417 -0.0832573 -0.239621 1.42849e+06 
160 -0.04405 8.83424e-05 1231.27 273.115 5.02441 5.02429 -0.117698 -0.282217 1.42859e+06 
193 -0.04075 8.83405e-05 1231.27 273.115 5.0243 5.02398 -0.0649363 -0.153122 1.42854e+06 
194 -0.04065 8.83411e-05 1231.28 273.112 5.02427 5.0239 -0.0860965 -0.184189 1.42853e+06 
195 -0.04055 8.83412e-05 1231.27 273.115 5.02434 5.02405 -0.0934241 -0.192882 1.42864e+06 
196 -0.04045 8.83409e-05 1231.27 273.112 5.02427 5.02397 -0.0710301 -0.150522 1.4286e+06 
197 -0.04035 8.83405e-05 1231.27 273.113 5.02426 5.02391 -0.0933469 -0.143098 1.42858e+06 
170 -0.04305 8.83423e-05 1231.27 273.118 5.02445 5.0244 -0.130857 -0.34248 1.42866e+06 
171 -0.04295 8.83411e-05 1231.27 273.115 5.02432 5.02431 -0.132068 -0.309831 1.4286e+06 
172 -0.04285 8.83425e-05 1231.27 273.115 5.0244 5.02426 -0.118503 -0.262401 1.42856e+06 
173 -0.04275 8.83413e-05 1231.27 273.115 5.02435 5.02422 -0.0756559 -0.219827 1.42857e+06 
174 -0.04265 8.8342e-05 1231.27 273.115 5.02438 5.02422 -0.115977 -0.30306 1.42863e+06 
175 -0.04255 8.83419e-05 1231.27 273.115 5.02437 5.0243 -0.135272 -0.357405 1.42871e+06 
176 -0.04245 8.83415e-05 1231.27 273.116 5.02438 5.02431 -0.147934 -0.370356 1.42872e+06 
177 -0.04235 8.83418e-05 1231.27 273.118 5.02443 5.02419 -0.143314 -0.364945 1.42869e+06 
178 -0.04225 8.83421e-05 1231.27 273.117 5.02442 5.0242 -0.139559 -0.360052 1.42865e+06 
179 -0.04215 8.83414e-05 1231.27 273.117 5.02438 5.02413 -0.180729 -0.46213 1.42865e+06 
180 -0.04205 8.83421e-05 1231.27 273.116 5.0244 5.02422 -0.137083 -0.378402 1.42865e+06 
181 -0.04195 8.83414e-05 1231.27 273.118 5.02441 5.02425 -0.156456 -0.392815 1.42866e+06 
182 -0.04185 8.83417e-05 1231.27 273.116 5.02438 5.02426 -0.158446 -0.399703 1.42865e+06 
183 -0.04175 8.83414e-05 1231.27 273.118 5.02441 5.02436 -0.129407 -0.349566 1.42873e+06 
184 -0.04165 8.83419e-05 1231.27 273.116 5.0244 5.02425 -0.121312 -0.325784 1.42863e+06 
185 -0.04155 8.83411e-05 1231.27 273.115 5.02433 5.02415 -0.127992 -0.319225 1.42861e+06 
186 -0.04145 8.83409e-05 1231.27 273.114 5.02429 5.0241 -0.0673999 -0.1854 1.42855e+06 
187 -0.04135 8.83415e-05 1231.27 273.112 5.0243 5.02413 -0.0403143 -0.220534 1.42849e+06 
188 -0.04125 8.83416e-05 1231.27 273.116 5.02438 5.02433 -0.0712458 -0.26746 1.42866e+06 
189 -0.04115 8.83404e-05 1231.27 273.111 5.02422 5.024 -0.0482049 -0.221543 1.42848e+06 
190 -0.04105 8.83412e-05 1231.27 273.112 5.02428 5.02413 -0.0532225 -0.211894 1.42855e+06 
191 -0.04095 8.83412e-05 1231.27 273.113 5.0243 5.02404 -0.0490909 -0.181484 1.4285e+06 
192 -0.04085 8.83412e-05 1231.27 273.112 5.02427 5.02392 -0.0560045 -0.162623 1.42851e+06 
200 -0.04005 8.83415e-05 1231.27 273.115 5.02436 5.02412 -0.110228 -0.177824 1.42866e+06 
225 -0.03755 8.83415e-05 1231.27 273.114 5.02434 5.02402 -0.0210154 -0.154986 1.42851e+06 
198 -0.04025 8.83407e-05 1231.27 273.113 5.02427 5.02394 -0.100603 -0.172346 1.42857e+06 
199 -0.04015 8.83413e-05 1231.27 273.113 5.02431 5.02408 -0.109458 -0.178878 1.42869e+06 
201 -0.03995 8.83404e-05 1231.27 273.114 5.02427 5.02416 -0.0835159 -0.196895 1.42868e+06 
202 -0.03985 8.83416e-05 1231.27 273.113 5.02431 5.02412 -0.0366541 -0.141527 1.4286e+06 
203 -0.03975 8.83414e-05 1231.27 273.113 5.0243 5.02415 -0.026827 -0.0850716 1.42861e+06 
204 -0.03965 8.83411e-05 1231.27 273.112 5.02427 5.02407 0.00190623 -0.0325525 1.42852e+06 
205 -0.03955 8.83415e-05 1231.27 273.11 5.02426 5.024 0.000177485 -0.0440389 1.4285e+06 
206 -0.03945 8.83413e-05 1231.27 273.114 5.02431 5.02412 0.00837985 -0.0638954 1.42855e+06 
207 -0.03935 8.83417e-05 1231.27 273.112 5.0243 5.02405 -0.0140982 -0.0977001 1.42854e+06 
208 -0.03925 8.83413e-05 1231.27 273.113 5.0243 5.02402 0.0131326 -0.0531585 1.42853e+06 
209 -0.03915 8.83413e-05 1231.27 273.111 5.02427 5.024 0.00120385 -0.0345986 1.42851e+06 
210 -0.03905 8.83415e-05 1231.27 273.113 5.02431 5.024 -0.0181338 -0.0748185 1.42852e+06 
211 -0.03895 8.83415e-05 1231.27 273.111 5.02428 5.02397 -0.0115865 -0.0667584 1.42852e+06 
212 -0.03885 8.8341e-05 1231.27 273.114 5.02431 5.02399 -0.0461171 -0.107052 1.4286e+06 
213 -0.03875 8.83414e-05 1231.27 273.115 5.02435 5.02413 -0.0822617 -0.195497 1.42868e+06 
214 -0.03865 8.83415e-05 1231.27 273.114 5.02433 5.02414 -0.0902128 -0.228082 1.42867e+06 
215 -0.03855 8.83414e-05 1231.27 273.115 5.02434 5.02409 -0.0887376 -0.203708 1.42867e+06 
216 -0.03845 8.83412e-05 1231.27 273.116 5.02435 5.02414 -0.0709379 -0.221298 1.42871e+06 
217 -0.03835 8.83415e-05 1231.27 273.113 5.02432 5.02414 -0.0432088 -0.174281 1.42866e+06 
218 -0.03825 8.83419e-05 1231.27 273.114 5.02435 5.02414 -0.0638627 -0.205922 1.42864e+06 
219 -0.03815 8.83413e-05 1231.27 273.113 5.0243 5.02398 -0.055403 -0.179957 1.42857e+06 
220 -0.03805 8.83412e-05 1231.27 273.114 5.02431 5.02412 -0.0785354 -0.201304 1.42865e+06 
221 -0.03795 8.83421e-05 1231.27 273.114 5.02436 5.02412 -0.0401711 -0.160591 1.42857e+06 
222 -0.03785 8.83418e-05 1231.27 273.113 5.02433 5.02406 -0.031442 -0.149675 1.42856e+06 
223 -0.03775 8.8341e-05 1231.27 273.112 5.02426 5.02399 -0.0336619 -0.18028 1.42851e+06 
224 -0.03765 8.83421e-05 1231.27 273.111 5.0243 5.02402 -0.0281414 -0.182973 1.42851e+06 
233 -0.03675 8.83421e-05 1231.27 273.112 5.02434 5.02414 -0.0515907 -0.142038 1.42853e+06 
226 -0.03745 8.83424e-05 1231.27 273.11 5.02431 5.0241 -0.0298693 -0.160274 1.42854e+06 
227 -0.03735 8.83417e-05 1231.27 273.115 5.02436 5.02415 -0.0371682 -0.16065 1.42856e+06 
228 -0.03725 8.83419e-05 1231.27 273.112 5.02432 5.02412 -0.0536669 -0.213856 1.42856e+06 
229 -0.03715 8.83418e-05 1231.27 273.114 5.02435 5.02415 -0.0504896 -0.213555 1.42853e+06 
230 -0.03705 8.83422e-05 1231.27 273.114 5.02437 5.02403 -0.0150331 -0.16558 1.42849e+06 
231 -0.03695 8.83418e-05 1231.27 273.113 5.02432 5.02403 -0.0173329 -0.15591 1.42849e+06 
232 -0.03685 8.83415e-05 1231.27 273.111 5.02428 5.02394 -0.0657741 -0.227594 1.42849e+06 
234 -0.03665 8.83423e-05 1231.27 273.114 5.02438 5.02402 -0.0383345 -0.109868 1.42844e+06 
235 -0.03655 8.83423e-05 1231.27 273.111 5.02433 5.02399 -0.0338323 -0.0754955 1.42842e+06 
236 -0.03645 8.83423e-05 1231.27 273.113 5.02435 5.02405 -0.0130805 -0.0556928 1.42844e+06 
237 -0.03635 8.83418e-05 1231.27 273.111 5.02429 5.02401 0.000757293 -0.0467877 1.4284e+06 
238 -0.03625 8.83425e-05 1231.27 273.112 5.02436 5.02402 -0.0394855 -0.10034 1.42841e+06 
239 -0.03615 8.83417e-05 1231.27 273.113 5.02433 5.02406 -0.0564031 -0.140923 1.42852e+06 
240 -0.03605 8.83421e-05 1231.27 273.114 5.02438 5.02415 -0.0745443 -0.137421 1.42857e+06 
241 -0.03595 8.83426e-05 1231.27 273.113 5.02438 5.02413 -0.0821554 -0.121366 1.42854e+06 
242 -0.03585 8.83421e-05 1231.27 273.114 5.02437 5.02418 -0.091441 -0.133994 1.42857e+06 
243 -0.03575 8.83425e-05 1231.27 273.112 5.02435 5.02422 -0.0761914 -0.108052 1.42855e+06 
244 -0.03565 8.83417e-05 1231.27 273.114 5.02435 5.02437 -0.0987408 -0.18036 1.42873e+06 
245 -0.03555 8.83425e-05 1231.27 273.116 5.02442 5.02439 -0.147494 -0.215884 1.42878e+06 
246 -0.03545 8.83421e-05 1231.27 273.114 5.02436 5.02423 -0.115378 -0.137634 1.42866e+06 
247 -0.03535 8.83428e-05 1231.27 273.115 5.02443 5.02429 -0.10065 -0.10724 1.42868e+06 
248 -0.03525 8.83422e-05 1231.27 273.113 5.02436 5.02433 -0.102518 -0.0945739 1.42867e+06 
249 -0.03515 8.83416e-05 1231.27 273.113 5.02431 5.02415 -0.0982635 -0.108386 1.42858e+06 
250 -0.03505 8.83426e-05 1231.27 273.113 5.02438 5.02422 -0.0842156 -0.0467585 1.42861e+06 
251 -0.03495 8.83421e-05 1231.27 273.112 5.02433 5.02411 -0.0821658 -0.0176561 1.4285e+06 
252 -0.03485 8.83423e-05 1231.27 273.114 5.02439 5.02422 -0.0796732 -0.0189352 1.42859e+06 
253 -0.03475 8.83422e-05 1231.27 273.114 5.02438 5.02427 -0.14273 -0.119004 1.42864e+06 
266 -0.03345 8.83419e-05 1231.27 273.12 5.02447 5.02448 -0.232137 -0.352818 1.42893e+06 
257 -0.03435 8.83426e-05 1231.27 273.114 5.0244 5.02413 -0.136243 -0.108038 1.42862e+06 
258 -0.03425 8.8342e-05 1231.27 273.113 5.02435 5.0241 -0.140132 -0.0992136 1.42862e+06 
259 -0.03415 8.83424e-05 1231.27 273.116 5.02441 5.02422 -0.16071 -0.15997 1.42869e+06 
260 -0.03405 8.83422e-05 1231.27 273.118 5.02444 5.02423 -0.153389 -0.164823 1.42869e+06 
261 -0.03395 8.83415e-05 1231.27 273.116 5.02437 5.02419 -0.182472 -0.220709 1.42873e+06 
262 -0.03385 8.83423e-05 1231.27 273.119 5.02448 5.0244 -0.20718 -0.283526 1.42891e+06 
263 -0.03375 8.83418e-05 1231.27 273.116 5.02439 5.02443 -0.218334 -0.301249 1.42886e+06 
264 -0.03365 8.83418e-05 1231.27 273.116 5.02439 5.02436 -0.197061 -0.301797 1.42885e+06 
265 -0.03355 8.83421e-05 1231.27 273.118 5.02445 5.02447 -0.221104 -0.363429 1.42892e+06 
267 -0.03335 8.83416e-05 1231.27 273.12 5.02444 5.02451 -0.225708 -0.341454 1.42891e+06 
268 -0.03325 8.8342e-05 1231.27 273.119 5.02445 5.02458 -0.230271 -0.369099 1.42896e+06 
269 -0.03315 8.83414e-05 1231.27 273.12 5.02444 5.02455 -0.191328 -0.284245 1.42896e+06 
270 -0.03305 8.83423e-05 1231.27 273.119 5.02448 5.02462 -0.250305 -0.392478 1.42903e+06 
271 -0.03295 8.83419e-05 1231.27 273.12 5.02446 5.02469 -0.233648 -0.388178 1.42907e+06 
272 -0.03285 8.83422e-05 1231.26 273.119 5.02447 5.02476 -0.242305 -0.389517 1.42911e+06 
273 -0.03275 8.83424e-05 1231.26 273.122 5.02454 5.02482 -0.283009 -0.440546 1.42919e+06 
274 -0.03265 8.83423e-05 1231.26 273.121 5.02451 5.02485 -0.299961 -0.466729 1.42923e+06 
275 -0.03255 8.83429e-05 1231.27 273.123 5.02457 5.02491 -0.286918 -0.47252 1.42921e+06 
276 -0.03245 8.83416e-05 1231.26 273.12 5.02445 5.02473 -0.257705 -0.42299 1.42917e+06 
277 -0.03235 8.83425e-05 1231.26 273.12 5.0245 5.02471 -0.250541 -0.394183 1.42915e+06 
278 -0.03225 8.83424e-05 1231.27 273.119 5.02449 5.02462 -0.250204 -0.375657 1.4291e+06 
279 -0.03215 8.83422e-05 1231.27 273.12 5.02448 5.02465 -0.28136 -0.425998 1.42917e+06 
280 -0.03205 8.83424e-05 1231.27 273.121 5.02452 5.02464 -0.291191 -0.412954 1.42917e+06 
281 -0.03195 8.83419e-05 1231.27 273.12 5.02447 5.02457 -0.250263 -0.344617 1.42912e+06 
254 -0.03465 8.83423e-05 1231.27 273.115 5.0244 5.0242 -0.143596 -0.145157 1.42869e+06 
255 -0.03455 8.83426e-05 1231.27 273.112 5.02436 5.02413 -0.116429 -0.0861186 1.42859e+06 
256 -0.03445 8.83421e-05 1231.27 273.116 5.02441 5.02421 -0.12754 -0.117621 1.42867e+06 
299 -0.03015 8.8342e-05 1231.27 273.123 5.02453 5.02469 -0.316529 -0.407566 1.4295e+06 
289 -0.03115 8.83416e-05 1231.27 273.123 5.02451 5.0245 -0.301435 -0.387225 1.4293e+06 
290 -0.03105 8.83419e-05 1231.27 273.121 5.02449 5.02448 -0.299257 -0.417987 1.4293e+06 
291 -0.03095 8.8342e-05 1231.27 273.121 5.0245 5.02453 -0.280627 -0.391427 1.42925e+06 
292 -0.03085 8.83419e-05 1231.27 273.121 5.02449 5.02463 -0.249595 -0.370725 1.4293e+06 
293 -0.03075 8.83421e-05 1231.27 273.119 5.02446 5.02457 -0.232387 -0.331571 1.42926e+06 
294 -0.03065 8.83414e-05 1231.27 273.12 5.02445 5.02451 -0.258781 -0.333732 1.42932e+06 
295 -0.03055 8.83415e-05 1231.27 273.122 5.02448 5.02458 -0.303885 -0.375404 1.4294e+06 
296 -0.03045 8.83424e-05 1231.27 273.12 5.0245 5.02465 -0.301432 -0.387968 1.42937e+06 
297 -0.03035 8.83417e-05 1231.27 273.122 5.0245 5.02467 -0.280861 -0.370305 1.42942e+06 
298 -0.03025 8.83422e-05 1231.27 273.123 5.02454 5.02468 -0.305517 -0.401345 1.42947e+06 
300 -0.03005 8.83421e-05 1231.27 273.121 5.0245 5.02464 -0.35666 -0.469336 1.42958e+06 
301 -0.02995 8.83415e-05 1231.27 273.123 5.0245 5.02459 -0.365717 -0.498426 1.42961e+06 
302 -0.02985 8.83426e-05 1231.27 273.125 5.02459 5.0247 -0.425999 -0.603646 1.42981e+06 
303 -0.02975 8.83419e-05 1231.27 273.127 5.02459 5.02475 -0.438325 -0.619487 1.42986e+06 
304 -0.02965 8.83424e-05 1231.27 273.123 5.02455 5.02473 -0.393964 -0.57949 1.42975e+06 
305 -0.02955 8.83415e-05 1231.27 273.124 5.02452 5.0247 -0.405104 -0.584815 1.42985e+06 
306 -0.02945 8.83421e-05 1231.27 273.127 5.0246 5.02482 -0.424006 -0.605321 1.42992e+06 
307 -0.02935 8.83417e-05 1231.26 273.125 5.02455 5.02482 -0.445436 -0.636028 1.42994e+06 
308 -0.02925 8.83424e-05 1231.26 273.126 5.0246 5.02489 -0.463199 -0.706377 1.43004e+06 
309 -0.02915 8.83417e-05 1231.26 273.128 5.0246 5.02494 -0.453604 -0.665542 1.43011e+06 
310 -0.02905 8.83417e-05 1231.26 273.126 5.02456 5.02481 -0.485279 -0.655885 1.4301e+06 
282 -0.03185 8.83427e-05 1231.26 273.12 5.02451 5.02465 -0.223931 -0.269716 1.42913e+06 
283 -0.03175 8.83425e-05 1231.27 273.12 5.0245 5.02452 -0.274845 -0.339901 1.42909e+06 
284 -0.03165 8.83422e-05 1231.27 273.12 5.02448 5.02452 -0.242806 -0.291427 1.42917e+06 
285 -0.03155 8.83423e-05 1231.27 273.122 5.02453 5.02456 -0.275758 -0.376919 1.42921e+06 
286 -0.03145 8.83418e-05 1231.27 273.12 5.02445 5.02446 -0.281113 -0.37752 1.42919e+06 
287 -0.03135 8.83424e-05 1231.27 273.122 5.02453 5.0245 -0.284573 -0.423731 1.42922e+06 
288 -0.03125 8.83419e-05 1231.27 273.121 5.02448 5.02449 -0.297717 -0.409714 1.42927e+06 
332 -0.02685 8.8342e-05 1231.26 273.139 5.02482 5.02513 -0.782418 -1.04086 1.43174e+06 
321 -0.02795 8.8341e-05 1231.26 273.132 5.02463 5.02493 -0.595914 -0.844589 1.43075e+06 
322 -0.02785 8.83422e-05 1231.26 273.131 5.02469 5.02503 -0.627236 -0.888179 1.43092e+06 
323 -0.02775 8.83413e-05 1231.26 273.132 5.02466 5.02514 -0.631189 -0.89848 1.43103e+06 
324 -0.02765 8.83419e-05 1231.26 273.133 5.0247 5.02512 -0.671138 -0.974073 1.43109e+06 
325 -0.02755 8.83416e-05 1231.26 273.135 5.02473 5.02512 -0.710358 -1.00109 1.43117e+06 
326 -0.02745 8.83421e-05 1231.26 273.137 5.02478 5.02515 -0.734704 -1.03573 1.43133e+06 
327 -0.02735 8.83421e-05 1231.26 273.134 5.02474 5.02509 -0.706493 -0.956906 1.4313e+06 
328 -0.02725 8.8342e-05 1231.26 273.137 5.02479 5.02517 -0.767066 -1.02814 1.4315e+06 
329 -0.02715 8.83419e-05 1231.26 273.137 5.02478 5.02508 -0.727557 -0.992461 1.43143e+06 
330 -0.02705 8.8342e-05 1231.26 273.136 5.02477 5.02502 -0.711396 -0.965445 1.43143e+06 
331 -0.02695 8.83421e-05 1231.26 273.137 5.02478 5.02506 -0.7843 -1.07445 1.43163e+06 
333 -0.02675 8.83419e-05 1231.26 273.136 5.02476 5.02507 -0.810571 -1.08419 1.43176e+06 
334 -0.02665 8.83425e-05 1231.26 273.142 5.0249 5.02531 -0.805393 -1.08726 1.43199e+06 
335 -0.02655 8.83418e-05 1231.26 273.139 5.02481 5.0253 -0.88374 -1.17587 1.43208e+06 
336 -0.02645 8.83418e-05 1231.26 273.144 5.0249 5.0254 -0.913824 -1.22852 1.43231e+06 
337 -0.02635 8.83424e-05 1231.26 273.144 5.02493 5.0255 -0.971224 -1.31811 1.43252e+06 
338 -0.02625 8.83429e-05 1231.26 273.146 5.02499 5.02563 -1.05221 -1.46146 1.43276e+06 
311 -0.02895 8.83421e-05 1231.27 273.128 5.02462 5.02491 -0.531616 -0.664416 1.43022e+06 
312 -0.02885 8.83417e-05 1231.27 273.13 5.02463 5.02498 -0.51362 -0.650656 1.43024e+06 
313 -0.02875 8.83419e-05 1231.26 273.128 5.02461 5.02482 -0.50078 -0.662072 1.43019e+06 
314 -0.02865 8.8342e-05 1231.26 273.13 5.02465 5.02507 -0.555409 -0.781965 1.43042e+06 
315 -0.02855 8.83412e-05 1231.26 273.13 5.02461 5.02495 -0.587255 -0.823618 1.43044e+06 
316 -0.02845 8.83415e-05 1231.27 273.132 5.02467 5.02508 -0.615755 -0.869241 1.43061e+06 