ITEM: TIMESTEP
20000
ITEM: NUMBER OF CELLS
900
ITEM: BOX BOUNDS os pp pp
-0.06 0.03
-0.001 0.001
-0.001 0.001
ITEM: CELLS id f_1[1] f_1[2] f_1[3] f_1[4] f_1[5] f_1[6] f_1[7] f_1[8] f_1[9] 
1 -0.05995 8.8341e-05 1231.27 273.103 5.0241 5.02272 -0.154591 -0.249164 1.42654e+06 
2 -0.05985 8.8342e-05 1231.27 273.104 5.02417 5.02297 -0.20586 -0.39508 1.42678e+06 
3 -0.05975 8.83412e-05 1231.27 273.106 5.02417 5.02316 -0.262933 -0.539072 1.42698e+06 
4 -0.05965 8.83427e-05 1231.27 273.11 5.02433 5.02349 -0.306572 -0.655284 1.42724e+06 
5 -0.05955 8.83418e-05 1231.27 273.111 5.02429 5.02348 -0.346571 -0.716444 1.4273e+06 
6 -0.05945 8.83422e-05 1231.27 273.111 5.02431 5.02355 -0.389112 -0.814769 1.42739e+06 
7 -0.05935 8.83425e-05 1231.26 273.113 5.02437 5.02365 -0.404919 -0.853205 1.42754e+06 
8 -0.05925 8.83423e-05 1231.26 273.113 5.02437 5.02367 -0.428775 -0.892451 1.42754e+06 
9 -0.05915 8.83422e-05 1231.26 273.112 5.02433 5.02369 -0.433246 -0.913213 1.42757e+06 
10 -0.05905 8.83423e-05 1231.27 273.113 5.02436 5.0237 -0.413899 -0.895562 1.4276e+06 
11 -0.05895 8.83423e-05 1231.26 273.113 5.02437 5.0236 -0.408408 -0.804184 1.42755e+06 
12 -0.05885 8.83427e-05 1231.27 273.113 5.02439 5.0236 -0.433848 -0.867339 1.42762e+06 
13 -0.05875 8.83417e-05 1231.27 273.114 5.02434 5.02353 -0.445088 -0.904675 1.42766e+06 
14 -0.05865 8.83424e-05 1231.27 273.111 5.02433 5.02343 -0.382981 -0.763285 1.42752e+06 
15 -0.05855 8.83416e-05 1231.27 273.112 5.0243 5.02334 -0.360277 -0.719875 1.42752e+06 
16 -0.05845 8.83417e-05 1231.27 273.112 5.02431 5.02337 -0.364599 -0.733138 1.42756e+06 
17 -0.05835 8.83421e-05 1231.27 273.111 5.02431 5.02341 -0.36813 -0.7543 1.42757e+06 
18 -0.05825 8.83418e-05 1231.27 273.109 5.02426 5.02344 -0.309729 -0.687873 1.42754e+06 
19 -0.05815 8.83418e-05 1231.27 273.11 5.02427 5.02338 -0.305022 -0.652193 1.42753e+06 
20 -0.05805 8.83427e-05 1231.27 273.109 5.02431 5.02345 -0.342383 -0.731298 1.42756e+06 
21 -0.05795 8.83413e-05 1231.26 273.11 5.02425 5.02348 -0.33274 -0.733391 1.42757e+06 
22 -0.05785 8.83429e-05 1231.26 273.11 5.02434 5.02365 -0.33366 -0.763034 1.42768e+06 
23 -0.05775 8.83423e-05 1231.27 273.11 5.02432 5.02353 -0.316075 -0.719325 1.42764e+06 
24 -0.05765 8.83424e-05 1231.27 273.108 5.02428 5.02352 -0.290987 -0.665514 1.4276e+06 
25 -0.05755 8.83419e-05 1231.26 273.108 5.02425 5.02347 -0.313202 -0.685305 1.4276e+06 
26 -0.05745 8.83429e-05 1231.27 273.11 5.02435 5.02357 -0.294693 -0.639759 1.42763e+06 
27 -0.05735 8.83421e-05 1231.26 273.107 5.02423 5.02358 -0.26592 -0.632301 1.42765e+06 
28 -0.05725 8.83425e-05 1231.27 273.109 5.02429 5.02354 -0.258787 -0.611949 1.42764e+06 
29 -0.05715 8.83422e-05 1231.26 273.11 5.0243 5.02359 -0.279353 -0.640587 1.42776e+06 
34 -0.05665 8.83424e-05 1231.27 273.106 5.02424 5.02324 -0.207175 -0.417688 1.42755e+06 
33 -0.05675 8.83416e-05 1231.27 273.105 5.02418 5.02326 -0.199713 -0.417962 1.42755e+06 
35 -0.05655 8.83416e-05 1231.27 273.105 5.02418 5.02321 -0.167675 -0.343585 1.42751e+06 
36 -0.05645 8.83423e-05 1231.27 273.105 5.02422 5.02333 -0.229888 -0.448987 1.42762e+06 
37 -0.05635 8.83423e-05 1231.27 273.106 5.02423 5.02341 -0.226201 -0.481988 1.42769e+06 
38 -0.05625 8.83422e-05 1231.26 273.107 5.02425 5.02345 -0.210291 -0.433707 1.4277e+06 
39 -0.05615 8.83422e-05 1231.27 273.107 5.02423 5.02349 -0.222857 -0.472422 1.4277e+06 
40 -0.05605 8.8342e-05 1231.27 273.104 5.02418 5.02339 -0.193086 -0.408627 1.42763e+06 
41 -0.05595 8.83418e-05 1231.26 273.106 5.0242 5.02345 -0.212914 -0.407399 1.42765e+06 
42 -0.05585 8.83423e-05 1231.27 273.105 5.02422 5.02343 -0.18693 -0.340804 1.42764e+06 
43 -0.05575 8.83419e-05 1231.27 273.104 5.02418 5.02337 -0.244033 -0.434103 1.42767e+06 
44 -0.05565 8.83415e-05 1231.26 273.108 5.02422 5.02354 -0.282852 -0.539515 1.42779e+06 
45 -0.05555 8.83426e-05 1231.26 273.109 5.0243 5.0236 -0.267943 -0.489426 1.42785e+06 
46 -0.05545 8.8342e-05 1231.26 273.107 5.02424 5.02349 -0.269819 -0.482689 1.4278e+06 
47 -0.05535 8.8342e-05 1231.27 273.107 5.02424 5.02357 -0.252332 -0.464279 1.42786e+06 
48 -0.05525 8.83426e-05 1231.26 273.108 5.02429 5.02349 -0.285099 -0.521313 1.42783e+06 
49 -0.05515 8.83422e-05 1231.26 273.107 5.02424 5.02353 -0.27166 -0.482256 1.42782e+06 
50 -0.05505 8.83423e-05 1231.26 273.107 5.02424 5.02353 -0.27719 -0.449594 1.42779e+06 
51 -0.05495 8.83418e-05 1231.26 273.106 5.02421 5.02351 -0.227857 -0.395238 1.42781e+06 
52 -0.05485 8.83424e-05 1231.26 273.107 5.02425 5.02358 -0.219926 -0.353211 1.4278e+06 
53 -0.05475 8.83425e-05 1231.26 273.107 5.02427 5.0236 -0.237853 -0.422263 1.42786e+06 
54 -0.05465 8.83428e-05 1231.26 273.106 5.02426 5.02363 -0.196055 -0.344157 1.42782e+06 
55 -0.05455 8.83426e-05 1231.26 273.106 5.02425 5.02366 -0.189598 -0.326147 1.42783e+06 
56 -0.05445 8.8343e-05 1231.26 273.107 5.02429 5.02367 -0.174378 -0.292575 1.42786e+06 
57 -0.05435 8.83429e-05 1231.26 273.108 5.0243 5.02369 -0.208919 -0.369263 1.4279e+06 
30 -0.05705 8.83416e-05 1231.27 273.106 5.02419 5.02336 -0.232243 -0.518012 1.4276e+06 
31 -0.05695 8.83429e-05 1231.27 273.107 5.02428 5.02347 -0.258128 -0.598 1.42768e+06 
32 -0.05685 8.83422e-05 1231.27 273.105 5.02422 5.02329 -0.193649 -0.421588 1.42755e+06 
67 -0.05335 8.83418e-05 1231.26 273.107 5.02423 5.02356 -0.232293 -0.393757 1.428e+06 
65 -0.05355 8.83423e-05 1231.26 273.112 5.02434 5.02379 -0.296783 -0.52339 1.42814e+06 
66 -0.05345 8.83434e-05 1231.26 273.11 5.02436 5.02376 -0.25786 -0.477576 1.4281e+06 
68 -0.05325 8.83429e-05 1231.26 273.109 5.02433 5.02361 -0.24547 -0.3809 1.42804e+06 
69 -0.05315 8.83429e-05 1231.26 273.105 5.02425 5.02348 -0.220225 -0.29272 1.42796e+06 
70 -0.05305 8.83425e-05 1231.26 273.109 5.02429 5.0236 -0.228418 -0.328874 1.42808e+06 
71 -0.05295 8.83428e-05 1231.26 273.108 5.0243 5.02363 -0.209297 -0.296569 1.4281e+06 
72 -0.05285 8.83418e-05 1231.26 273.106 5.0242 5.02347 -0.197704 -0.265161 1.428e+06 
73 -0.05275 8.83429e-05 1231.26 273.105 5.02425 5.02353 -0.175016 -0.214355 1.42803e+06 
74 -0.05265 8.8342e-05 1231.26 273.104 5.02417 5.02343 -0.191207 -0.257012 1.428e+06 
75 -0.05255 8.8343e-05 1231.26 273.104 5.02424 5.02351 -0.16424 -0.144024 1.42805e+06 
76 -0.05245 8.83423e-05 1231.27 273.103 5.02417 5.02336 -0.184066 -0.172659 1.42796e+06 
77 -0.05235 8.83418e-05 1231.27 273.104 5.02416 5.02333 -0.118171 -0.00932432 1.42791e+06 
78 -0.05225 8.83424e-05 1231.27 273.103 5.02418 5.02329 -0.133055 -0.0220796 1.42787e+06 
79 -0.05215 8.83417e-05 1231.27 273.104 5.02416 5.02332 -0.146272 -0.0776773 1.42793e+06 
80 -0.05205 8.83426e-05 1231.26 273.105 5.02422 5.02343 -0.181683 -0.129437 1.42805e+06 
81 -0.05195 8.83422e-05 1231.27 273.103 5.02417 5.0233 -0.176628 -0.11436 1.42799e+06 
82 -0.05185 8.83427e-05 1231.27 273.104 5.02423 5.02338 -0.144821 -0.0352948 1.42802e+06 
83 -0.05175 8.83416e-05 1231.26 273.103 5.02413 5.02326 -0.132105 -0.0716586 1.42794e+06 
84 -0.05165 8.83427e-05 1231.27 273.102 5.02418 5.02333 -0.114584 -0.0487149 1.42798e+06 
85 -0.05155 8.83422e-05 1231.26 273.1 5.02412 5.02324 -0.0535433 0.0771821 1.42787e+06 
58 -0.05425 8.83432e-05 1231.26 273.108 5.02433 5.02372 -0.25646 -0.482259 1.42796e+06 
59 -0.05415 8.83429e-05 1231.26 273.109 5.02433 5.0237 -0.231123 -0.447418 1.42796e+06 
60 -0.05405 8.8343e-05 1231.26 273.107 5.0243 5.0237 -0.227522 -0.451572 1.42793e+06 
61 -0.05395 8.83429e-05 1231.26 273.109 5.02433 5.02374 -0.254473 -0.467783 1.428e+06 
62 -0.05385 8.83432e-05 1231.26 273.111 5.02438 5.02383 -0.271439 -0.49665 1.42807e+06 
63 -0.05375 8.83431e-05 1231.26 273.108 5.02431 5.02382 -0.281341 -0.489716 1.42806e+06 
64 -0.05365 8.83428e-05 1231.26 273.109 5.02431 5.02379 -0.273068 -0.489652 1.42809e+06 
100 -0.05005 8.83421e-05 1231.26 273.101 5.02414 5.02327 -0.0859143 0.0384728 1.42791e+06 
97 -0.05035 8.83421e-05 1231.26 273.102 5.02415 5.02339 -0.129188 -0.0712044 1.42804e+06 
98 -0.05025 8.83414e-05 1231.27 273.103 5.02413 5.02337 -0.0877543 -0.00584618 1.428e+06 
99 -0.05015 8.83419e-05 1231.26 273.105 5.02419 5.02336 -0.077385 0.0352784 1.42801e+06 
101 -0.04995 8.83409e-05 1231.27 273.101 5.02407 5.02317 -0.0699016 0.066815 1.42789e+06 
102 -0.04985 8.83424e-05 1231.27 273.103 5.02419 5.02336 -0.091781 -0.0179732 1.42803e+06 
103 -0.04975 8.83423e-05 1231.27 273.101 5.02414 5.02336 -0.0992389 -0.0794078 1.42806e+06 
104 -0.04965 8.83418e-05 1231.26 273.104 5.02416 5.02336 -0.0905077 -0.127703 1.42811e+06 
105 -0.04955 8.83421e-05 1231.26 273.102 5.02414 5.02337 -0.0743725 -0.135288 1.42807e+06 
106 -0.04945 8.83423e-05 1231.27 273.101 5.02414 5.02334 -0.0730304 -0.16463 1.42806e+06 
107 -0.04935 8.83418e-05 1231.26 273.101 5.02412 5.02337 -0.0842357 -0.198356 1.42812e+06 
108 -0.04925 8.83417e-05 1231.27 273.102 5.02412 5.02331 -0.0899164 -0.218404 1.42813e+06 
109 -0.04915 8.83426e-05 1231.26 273.101 5.02415 5.02335 -0.109147 -0.221908 1.42813e+06 
110 -0.04905 8.83425e-05 1231.26 273.103 5.02419 5.02337 -0.0872082 -0.162488 1.42815e+06 
111 -0.04895 8.83429e-05 1231.26 273.1 5.02415 5.02338 -0.115795 -0.213018 1.4281e+06 
112 -0.04885 8.83417e-05 1231.26 273.103 5.02414 5.02336 -0.0852425 -0.139173 1.42812e+06 
113 -0.04875 8.83427e-05 1231.26 273.103 5.02419 5.02337 -0.105752 -0.163272 1.42811e+06 
86 -0.05145 8.83415e-05 1231.27 273.102 5.02412 5.02321 -0.104365 -0.0171313 1.42786e+06 
87 -0.05135 8.83423e-05 1231.26 273.102 5.02416 5.02337 -0.0959836 0.00607783 1.42795e+06 
88 -0.05125 8.83422e-05 1231.26 273.103 5.02418 5.0234 -0.133687 -0.0862826 1.42798e+06 
89 -0.05115 8.83425e-05 1231.26 273.105 5.02423 5.02346 -0.165998 -0.159417 1.42804e+06 
90 -0.05105 8.83419e-05 1231.26 273.104 5.02417 5.0234 -0.177012 -0.210235 1.42807e+06 
91 -0.05095 8.83425e-05 1231.26 273.106 5.02424 5.02344 -0.169247 -0.188402 1.42811e+06 
92 -0.05085 8.83418e-05 1231.26 273.102 5.02414 5.02337 -0.177217 -0.17072 1.42806e+06 
93 -0.05075 8.8342e-05 1231.26 273.108 5.02425 5.02355 -0.202367 -0.22958 1.42822e+06 
94 -0.05065 8.83419e-05 1231.26 273.103 5.02415 5.02345 -0.188326 -0.209948 1.42815e+06 
95 -0.05055 8.83415e-05 1231.26 273.103 5.02413 5.02341 -0.113594 -0.0683098 1.42804e+06 
96 -0.05045 8.83421e-05 1231.26 273.105 5.0242 5.02342 -0.122573 -0.0844125 1.42804e+06 
133 -0.04675 8.83425e-05 1231.26 273.101 5.02416 5.02385 -0.121247 -0.164922 1.42842e+06 
129 -0.04715 8.83428e-05 1231.26 273.098 5.02412 5.02362 -0.0379994 0.0093608 1.42815e+06 
130 -0.04705 8.83429e-05 1231.26 273.099 5.02415 5.02366 -0.0274744 0.0235599 1.4282e+06 
131 -0.04695 8.83431e-05 1231.26 273.1 5.02417 5.0237 -0.0408732 0.0147232 1.42823e+06 
132 -0.04685 8.83429e-05 1231.26 273.104 5.02422 5.02381 -0.0533773 -0.0211737 1.42832e+06 
134 -0.04665 8.83438e-05 1231.26 273.102 5.02424 5.02401 -0.0821146 -0.107279 1.42843e+06 
135 -0.04655 8.83424e-05 1231.26 273.102 5.02417 5.02387 -0.111259 -0.145493 1.42842e+06 
136 -0.04645 8.83427e-05 1231.26 273.103 5.02419 5.02376 -0.0663701 -0.0568601 1.42833e+06 
137 -0.04635 8.83436e-05 1231.26 273.101 5.02422 5.02386 -0.0754165 -0.108982 1.42836e+06 
138 -0.04625 8.83423e-05 1231.26 273.101 5.02414 5.02362 -0.0566604 -0.0545331 1.42823e+06 
139 -0.04615 8.83427e-05 1231.26 273.103 5.0242 5.02378 -0.0697548 -0.119377 1.4283e+06 
140 -0.04605 8.83429e-05 1231.26 273.104 5.02423 5.02382 -0.0865141 -0.145863 1.42834e+06 
141 -0.04595 8.83432e-05 1231.26 273.101 5.0242 5.02376 -0.101793 -0.211788 1.42834e+06 
114 -0.04865 8.83424e-05 1231.26 273.101 5.02415 5.02336 -0.0809352 -0.110706 1.42809e+06 
115 -0.04855 8.83422e-05 1231.26 273.099 5.0241 5.0233 -0.093209 -0.142833 1.42809e+06 
116 -0.04845 8.83427e-05 1231.26 273.102 5.02418 5.02349 -0.103572 -0.1649 1.42818e+06 
117 -0.04835 8.83429e-05 1231.26 273.103 5.02421 5.02365 -0.116611 -0.198618 1.42825e+06 
118 -0.04825 8.83432e-05 1231.26 273.102 5.02422 5.02373 -0.119915 -0.202745 1.42834e+06 
119 -0.04815 8.83421e-05 1231.26 273.1 5.02412 5.02363 -0.131358 -0.218365 1.42826e+06 
120 -0.04805 8.83425e-05 1231.26 273.102 5.02417 5.02371 -0.0857436 -0.131788 1.42829e+06 
121 -0.04795 8.83429e-05 1231.26 273.102 5.02419 5.02373 -0.121031 -0.145338 1.42833e+06 
122 -0.04785 8.8343e-05 1231.26 273.102 5.02419 5.02368 -0.138482 -0.181482 1.42834e+06 
123 -0.04775 8.83428e-05 1231.26 273.103 5.0242 5.02377 -0.159777 -0.228858 1.42843e+06 
124 -0.04765 8.83433e-05 1231.26 273.102 5.02422 5.02374 -0.121581 -0.165564 1.42836e+06 
125 -0.04755 8.83429e-05 1231.26 273.101 5.02418 5.02375 -0.117927 -0.160648 1.42832e+06 
126 -0.04745 8.83426e-05 1231.26 273.101 5.02416 5.0237 -0.0855636 -0.086073 1.42828e+06 
127 -0.04735 8.83428e-05 1231.26 273.1 5.02415 5.02369 -0.0864207 -0.0595406 1.42824e+06 
128 -0.04725 8.83425e-05 1231.26 273.102 5.02416 5.02358 -0.0336076 0.00890404 1.42818e+06 
166 -0.04345 8.83434e-05 1231.25 273.103 5.02424 5.02399 -0.0575436 -0.0533252 1.42852e+06 
161 -0.04395 8.83428e-05 1231.26 273.101 5.02417 5.02378 -0.0648467 -0.0472138 1.42832e+06 
162 -0.04385 8.83436e-05 1231.26 273.103 5.02426 5.02387 -0.058783 -0.0732034 1.42844e+06 
163 -0.04375 8.83432e-05 1231.26 273.1 5.02417 5.02376 -0.0142569 0.0151874 1.42831e+06 
164 -0.04365 8.8343e-05 1231.26 273.101 5.02417 5.02379 -0.0291462 -0.0372419 1.42837e+06 
165 -0.04355 8.83438e-05 1231.26 273.101 5.02424 5.02396 -0.0542751 -0.0506059 1.42849e+06 
167 -0.04335 8.8343e-05 1231.25 273.103 5.02421 5.02403 -0.06164 -0.0555381 1.42851e+06 
168 -0.04325 8.83445e-05 1231.25 273.102 5.02429 5.02411 -0.0579877 -0.0601519 1.42855e+06 
169 -0.04315 8.83431e-05 1231.25 273.103 5.02422 5.02412 -0.0520128 -0.0683246 1.42861e+06 
142 -0.04585 8.83428e-05 1231.26 273.102 5.02419 5.0237 -0.0993286 -0.151807 1.42833e+06 
143 -0.04575 8.8342e-05 1231.26 273.104 5.02417 5.02367 -0.0767302 -0.143325 1.42834e+06 
144 -0.04565 8.83432e-05 1231.26 273.101 5.02418 5.02368 -0.0831112 -0.153215 1.42829e+06 
145 -0.04555 8.83429e-05 1231.26 273.102 5.02419 5.02371 -0.0634199 -0.130671 1.42827e+06 
146 -0.04545 8.83436e-05 1231.26 273.101 5.02422 5.02372 -0.0571816 -0.103723 1.42827e+06 
147 -0.04535 8.83422e-05 1231.26 273.1 5.02413 5.02366 -0.0825514 -0.167588 1.42827e+06 
148 -0.04525 8.83431e-05 1231.26 273.104 5.02424 5.02388 -0.0789038 -0.162829 1.42839e+06 
149 -0.04515 8.8343e-05 1231.26 273.104 5.02423 5.02396 -0.0925117 -0.234204 1.42845e+06 
150 -0.04505 8.8343e-05 1231.26 273.102 5.02421 5.02382 -0.0740422 -0.178012 1.42841e+06 
151 -0.04495 8.83426e-05 1231.26 273.103 5.02419 5.02379 -0.0946542 -0.183004 1.42842e+06 
152 -0.04485 8.83433e-05 1231.26 273.102 5.02422 5.02381 -0.0905178 -0.185791 1.42838e+06 
153 -0.04475 8.83425e-05 1231.26 273.103 5.02419 5.02382 -0.118952 -0.233467 1.42844e+06 
154 -0.04465 8.83428e-05 1231.26 273.104 5.02423 5.02396 -0.139786 -0.259082 1.42851e+06 
155 -0.04455 8.83428e-05 1231.26 273.104 5.02423 5.02389 -0.152677 -0.319174 1.42851e+06 
156 -0.04445 8.83433e-05 1231.26 273.105 5.02426 5.02388 -0.132488 -0.254421 1.42849e+06 
157 -0.04435 8.83423e-05 1231.26 273.102 5.02416 5.02361 -0.100397 -0.189798 1.42834e+06 
158 -0.04425 8.83427e-05 1231.26 273.103 5.02421 5.02369 -0.106053 -0.160338 1.4284e+06 
159 -0.04415 8.83424e-05 1231.26 273.103 5.02418 5.02377 -0.108454 -0.189063 1.42847e+06 
160 -0.04405 8.83434e-05 1231.26 273.103 5.02423 5.02375 -0.0927513 -0.132858 1.42839e+06 
193 -0.04075 8.83423e-05 1231.26 273.098 5.02409 5.02359 0.073688 0.0642144 1.42833e+06 
194 -0.04065 8.83431e-05 1231.26 273.099 5.02414 5.02373 0.05199 0.0469701 1.42836e+06 
195 -0.04055 8.8343e-05 1231.26 273.098 5.02412 5.02378 0.0613026 0.0333454 1.42839e+06 
196 -0.04045 8.83435e-05 1231.26 273.1 5.02419 5.02387 0.0525785 0.0252082 1.42843e+06 
197 -0.04035 8.83429e-05 1231.26 273.099 5.02414 5.02379 0.0351448 -0.0126308 1.42842e+06 
170 -0.04305 8.83438e-05 1231.25 273.102 5.02424 5.02411 -0.0341348 -0.0420622 1.42858e+06 
171 -0.04295 8.83437e-05 1231.25 273.1 5.02421 5.02397 -0.0338026 -0.00503713 1.42853e+06 
172 -0.04285 8.83439e-05 1231.25 273.099 5.0242 5.02398 0.00745073 0.0695031 1.42847e+06 
173 -0.04275 8.83432e-05 1231.26 273.101 5.02419 5.02404 -0.0329613 -0.0320767 1.42855e+06 
174 -0.04265 8.8344e-05 1231.26 273.099 5.02421 5.02398 0.0178829 0.0695753 1.42844e+06 
175 -0.04255 8.83442e-05 1231.26 273.098 5.0242 5.02399 0.0232693 0.0629189 1.42843e+06 
176 -0.04245 8.83437e-05 1231.26 273.099 5.02418 5.02391 0.0306847 0.0545709 1.42839e+06 
177 -0.04235 8.83436e-05 1231.25 273.098 5.02416 5.02394 0.0419245 0.0656968 1.42845e+06 
178 -0.04225 8.83438e-05 1231.26 273.096 5.02413 5.0238 0.0548466 0.0872112 1.42835e+06 
179 -0.04215 8.83433e-05 1231.26 273.098 5.02413 5.02381 0.0933389 0.127314 1.42831e+06 
180 -0.04205 8.83434e-05 1231.26 273.096 5.02412 5.02391 0.0761711 0.0626642 1.42836e+06 
181 -0.04195 8.83435e-05 1231.26 273.098 5.02415 5.02391 0.0291294 -0.0226165 1.42845e+06 
182 -0.04185 8.83438e-05 1231.26 273.099 5.0242 5.02397 0.0144616 -0.0538291 1.42849e+06 
183 -0.04175 8.83437e-05 1231.26 273.1 5.02421 5.02401 0.00650638 -0.0730637 1.42855e+06 
184 -0.04165 8.83435e-05 1231.26 273.098 5.02416 5.02384 0.0328192 -0.0130629 1.42839e+06 
185 -0.04155 8.83436e-05 1231.26 273.099 5.02417 5.02384 0.0150134 -0.0328357 1.42842e+06 
186 -0.04145 8.83433e-05 1231.26 273.101 5.02419 5.02386 -0.0087932 -0.0767242 1.42851e+06 
187 -0.04135 8.83434e-05 1231.26 273.1 5.02418 5.0238 0.0235349 -0.0195018 1.42845e+06 
188 -0.04125 8.83433e-05 1231.26 273.1 5.02418 5.02379 0.0471478 0.0286117 1.4284e+06 
189 -0.04115 8.83436e-05 1231.26 273.097 5.02415 5.02381 0.0559926 0.0352471 1.42838e+06 
190 -0.04105 8.83432e-05 1231.26 273.099 5.02415 5.02375 0.0783849 0.0905709 1.42833e+06 
191 -0.04095 8.83428e-05 1231.26 273.097 5.02409 5.02378 0.0804485 0.0741483 1.4284e+06 
192 -0.04085 8.8343e-05 1231.26 273.099 5.02414 5.02375 0.0484908 0.0150764 1.42843e+06 
200 -0.04005 8.83432e-05 1231.26 273.101 5.02419 5.02389 0.014289 -0.0109405 1.42856e+06 
225 -0.03755 8.83432e-05 1231.25 273.101 5.02419 5.02438 -0.0246478 -0.0685954 1.42869e+06 
198 -0.04025 8.83432e-05 1231.26 273.1 5.02418 5.02385 0.0441704 0.0280384 1.42846e+06 
199 -0.04015 8.83431e-05 1231.26 273.101 5.02419 5.02384 0.0133065 -0.0287612 1.42848e+06 
201 -0.03995 8.83431e-05 1231.26 273.101 5.02419 5.02389 -0.0164453 -0.0852599 1.42862e+06 
202 -0.03985 8.83428e-05 1231.26 273.102 5.02419 5.02403 -0.0627263 -0.182525 1.42872e+06 
203 -0.03975 8.83437e-05 1231.26 273.102 5.02424 5.024 -0.0438253 -0.132186 1.4287e+06 
204 -0.03965 8.83425e-05 1231.26 273.103 5.02418 5.02406 -0.0629211 -0.168259 1.42875e+06 
205 -0.03955 8.83429e-05 1231.26 273.1 5.02415 5.02397 -0.0373479 -0.110713 1.42862e+06 
206 -0.03945 8.83431e-05 1231.26 273.104 5.02423 5.02411 -0.0212582 -0.126194 1.42873e+06 
207 -0.03935 8.83425e-05 1231.26 273.102 5.02418 5.02405 -0.0347158 -0.135963 1.42866e+06 
208 -0.03925 8.83429e-05 1231.26 273.101 5.02417 5.02416 -0.0326737 -0.14007 1.42866e+06 
209 -0.03915 8.83432e-05 1231.25 273.102 5.02422 5.0243 -0.0344722 -0.170837 1.42873e+06 
210 -0.03905 8.83431e-05 1231.25 273.102 5.02421 5.02426 -0.047411 -0.206163 1.42872e+06 
211 -0.03895 8.83423e-05 1231.25 273.103 5.02418 5.02435 -0.0574572 -0.219797 1.42879e+06 
212 -0.03885 8.83429e-05 1231.25 273.104 5.02424 5.02442 -0.0505569 -0.218269 1.42882e+06 
213 -0.03875 8.83433e-05 1231.25 273.1 5.02418 5.02435 -0.0279922 -0.141586 1.42873e+06 
214 -0.03865 8.8343e-05 1231.25 273.1 5.02417 5.02436 0.0227559 -0.042717 1.42873e+06 
215 -0.03855 8.83428e-05 1231.25 273.101 5.02416 5.0244 -0.022372 -0.142267 1.42877e+06 
216 -0.03845 8.83432e-05 1231.25 273.103 5.02423 5.02447 -0.0299504 -0.174741 1.42879e+06 
217 -0.03835 8.83432e-05 1231.25 273.101 5.02418 5.02435 0.0181422 -0.0707044 1.42871e+06 
218 -0.03825 8.83425e-05 1231.25 273.1 5.02413 5.02434 -0.0205082 -0.079336 1.42875e+06 
219 -0.03815 8.83431e-05 1231.25 273.103 5.02421 5.02439 -0.0393898 -0.114316 1.42876e+06 
220 -0.03805 8.83432e-05 1231.25 273.097 5.02411 5.02422 -0.0397898 -0.11137 1.42866e+06 
221 -0.03795 8.83428e-05 1231.25 273.102 5.02418 5.02426 -0.0156797 -0.0735954 1.42871e+06 
222 -0.03785 8.83433e-05 1231.26 273.101 5.0242 5.02427 -0.0421851 -0.115371 1.42868e+06 
223 -0.03775 8.83428e-05 1231.25 273.102 5.02418 5.0244 0.00162363 -0.0316277 1.42869e+06 
224 -0.03765 8.83429e-05 1231.25 273.101 5.02417 5.02433 0.00540774 -0.0355488 1.4286e+06 
233 -0.03675 8.83427e-05 1231.25 273.106 5.02426 5.0246 -0.0789651 -0.188117 1.42892e+06 
226 -0.03745 8.83422e-05 1231.26 273.101 5.02413 5.02436 -0.0328368 -0.0946587 1.42866e+06 
227 -0.03735 8.83432e-05 1231.25 273.103 5.02423 5.02442 0.00823167 -0.0333233 1.42869e+06 
228 -0.03725 8.83427e-05 1231.25 273.101 5.02416 5.02448 -0.0349833 -0.103218 1.42874e+06 
229 -0.03715 8.83432e-05 1231.25 273.101 5.02418 5.02449 -0.0258418 -0.105892 1.42879e+06 
230 -0.03705 8.83424e-05 1231.25 273.104 5.0242 5.02452 -0.0599287 -0.182041 1.42888e+06 
231 -0.03695 8.83438e-05 1231.25 273.103 5.02427 5.02456 -0.078911 -0.171552 1.42888e+06 
232 -0.03685 8.83426e-05 1231.25 273.104 5.02421 5.02457 -0.0974249 -0.178968 1.42889e+06 
234 -0.03665 8.83423e-05 1231.25 273.103 5.02418 5.02445 -0.102043 -0.182321 1.42885e+06 
235 -0.03655 8.83432e-05 1231.25 273.103 5.02424 5.02457 -0.0787068 -0.166406 1.4289e+06 
236 -0.03645 8.83422e-05 1231.25 273.106 5.02422 5.02451 -0.0977344 -0.202903 1.42891e+06 
237 -0.03635 8.83424e-05 1231.25 273.103 5.02419 5.02456 -0.0918646 -0.190094 1.42891e+06 
238 -0.03625 8.83434e-05 1231.25 273.108 5.02434 5.02467 -0.116198 -0.232496 1.42899e+06 
239 -0.03615 8.83427e-05 1231.25 273.105 5.02424 5.0246 -0.106214 -0.210664 1.42899e+06 
240 -0.03605 8.83423e-05 1231.25 273.107 5.02424 5.0246 -0.126827 -0.243807 1.42902e+06 
241 -0.03595 8.83432e-05 1231.25 273.105 5.02427 5.02452 -0.0816138 -0.173642 1.42893e+06 
242 -0.03585 8.83431e-05 1231.25 273.105 5.02426 5.02457 -0.0840118 -0.144571 1.42898e+06 
243 -0.03575 8.83428e-05 1231.25 273.105 5.02425 5.02457 -0.113721 -0.190601 1.42902e+06 
244 -0.03565 8.83428e-05 1231.25 273.107 5.02427 5.02456 -0.122358 -0.210337 1.42907e+06 
245 -0.03555 8.83428e-05 1231.25 273.107 5.02428 5.02468 -0.16694 -0.264376 1.42916e+06 
246 -0.03545 8.83433e-05 1231.25 273.109 5.02435 5.02465 -0.154546 -0.21334 1.42907e+06 
247 -0.03535 8.83426e-05 1231.25 273.105 5.02424 5.02456 -0.101953 -0.134887 1.42898e+06 
248 -0.03525 8.83432e-05 1231.25 273.108 5.02432 5.02467 -0.133118 -0.173912 1.42907e+06 
249 -0.03515 8.83434e-05 1231.25 273.109 5.02434 5.02477 -0.160254 -0.250581 1.42915e+06 
250 -0.03505 8.83434e-05 1231.25 273.107 5.02431 5.02478 -0.153378 -0.228319 1.42909e+06 
251 -0.03495 8.83435e-05 1231.25 273.107 5.02432 5.02479 -0.128474 -0.19804 1.42911e+06 
252 -0.03485 8.83431e-05 1231.25 273.107 5.0243 5.0248 -0.157115 -0.25546 1.42912e+06 
253 -0.03475 8.83425e-05 1231.25 273.109 5.02429 5.02479 -0.151477 -0.273992 1.42915e+06 
266 -0.03345 8.83425e-05 1231.25 273.107 5.02426 5.0245 -0.19615 -0.31341 1.42911e+06 
257 -0.03435 8.83432e-05 1231.25 273.105 5.02427 5.02476 -0.136082 -0.289418 1.42909e+06 
258 -0.03425 8.83433e-05 1231.25 273.109 5.02434 5.0248 -0.147146 -0.277301 1.42912e+06 
259 -0.03415 8.83432e-05 1231.25 273.105 5.02427 5.02478 -0.155117 -0.248606 1.42911e+06 
260 -0.03405 8.83435e-05 1231.25 273.107 5.02432 5.02488 -0.186717 -0.305713 1.4292e+06 
261 -0.03395 8.83432e-05 1231.25 273.108 5.02432 5.0248 -0.215353 -0.349909 1.42925e+06 
262 -0.03385 8.83428e-05 1231.25 273.106 5.02426 5.02458 -0.158666 -0.253571 1.42908e+06 
263 -0.03375 8.83436e-05 1231.25 273.107 5.02432 5.0246 -0.170808 -0.248425 1.42909e+06 
264 -0.03365 8.83428e-05 1231.25 273.107 5.02428 5.02457 -0.148981 -0.227193 1.42909e+06 
265 -0.03355 8.83431e-05 1231.25 273.107 5.02429 5.02448 -0.183101 -0.282277 1.42907e+06 
267 -0.03335 8.83433e-05 1231.25 273.107 5.02431 5.02442 -0.15577 -0.244353 1.42901e+06 
268 -0.03325 8.83428e-05 1231.25 273.107 5.02428 5.02445 -0.201814 -0.334409 1.42911e+06 
269 -0.03315 8.83431e-05 1231.25 273.107 5.02429 5.02442 -0.17735 -0.285274 1.42908e+06 
270 -0.03305 8.83422e-05 1231.25 273.108 5.02426 5.02432 -0.163028 -0.241818 1.42905e+06 
271 -0.03295 8.83432e-05 1231.25 273.108 5.02432 5.02442 -0.219076 -0.337902 1.42915e+06 
272 -0.03285 8.83435e-05 1231.25 273.109 5.02436 5.02438 -0.186968 -0.287045 1.42913e+06 
273 -0.03275 8.8343e-05 1231.26 273.108 5.02431 5.02433 -0.216036 -0.337243 1.42909e+06 
274 -0.03265 8.83439e-05 1231.25 273.109 5.02438 5.0244 -0.229822 -0.360593 1.42917e+06 
275 -0.03255 8.83433e-05 1231.25 273.108 5.02433 5.02433 -0.219962 -0.352185 1.42915e+06 
276 -0.03245 8.83433e-05 1231.25 273.108 5.02432 5.02439 -0.235859 -0.369587 1.42917e+06 
277 -0.03235 8.8344e-05 1231.25 273.111 5.02442 5.02449 -0.249827 -0.436203 1.42929e+06 
278 -0.03225 8.83436e-05 1231.25 273.109 5.02437 5.02448 -0.270867 -0.449109 1.42935e+06 
279 -0.03215 8.83434e-05 1231.25 273.112 5.0244 5.02447 -0.298169 -0.458313 1.42939e+06 
280 -0.03205 8.83433e-05 1231.25 273.112 5.02439 5.02443 -0.310029 -0.41677 1.4294e+06 
281 -0.03195 8.83442e-05 1231.25 273.11 5.02442 5.0245 -0.246646 -0.360349 1.42936e+06 
254 -0.03465 8.83438e-05 1231.25 273.105 5.02431 5.02482 -0.15404 -0.298047 1.4291e+06 
255 -0.03455 8.83427e-05 1231.25 273.107 5.02427 5.02479 -0.126597 -0.254349 1.42911e+06 
256 -0.03445 8.83438e-05 1231.25 273.106 5.02432 5.02485 -0.156853 -0.310592 1.42915e+06 
299 -0.03015 8.83436e-05 1231.25 273.118 5.02452 5.02477 -0.393922 -0.632346 1.42991e+06 
289 -0.03115 8.83434e-05 1231.25 273.113 5.02442 5.02461 -0.356156 -0.627296 1.42966e+06 
290 -0.03105 8.8344e-05 1231.25 273.115 5.02448 5.02474 -0.366027 -0.652574 1.42975e+06 
291 -0.03095 8.83436e-05 1231.25 273.118 5.02452 5.02493 -0.399685 -0.719505 1.42988e+06 
292 -0.03085 8.83435e-05 1231.25 273.116 5.02448 5.02485 -0.442667 -0.798544 1.42988e+06 
293 -0.03075 8.83447e-05 1231.25 273.118 5.02458 5.02485 -0.400048 -0.671131 1.42986e+06 
294 -0.03065 8.83429e-05 1231.25 273.114 5.02442 5.02471 -0.40645 -0.699054 1.42982e+06 
295 -0.03055 8.83436e-05 1231.25 273.116 5.0245 5.02471 -0.364528 -0.650546 1.4298e+06 
296 -0.03045 8.83443e-05 1231.25 273.116 5.02453 5.02472 -0.412104 -0.709155 1.42983e+06 
297 -0.03035 8.83434e-05 1231.25 273.116 5.02449 5.02471 -0.425228 -0.744513 1.42989e+06 
298 -0.03025 8.83438e-05 1231.25 273.114 5.02446 5.02474 -0.42237 -0.718951 1.42988e+06 
300 -0.03005 8.83445e-05 1231.25 273.114 5.02451 5.02466 -0.384457 -0.604574 1.42982e+06 
301 -0.02995 8.83433e-05 1231.25 273.116 5.02447 5.02456 -0.369812 -0.53667 1.42981e+06 
302 -0.02985 8.8344e-05 1231.25 273.114 5.02448 5.02462 -0.376788 -0.552741 1.42983e+06 
303 -0.02975 8.83436e-05 1231.25 273.115 5.02446 5.02464 -0.383011 -0.551679 1.42992e+06 
304 -0.02965 8.83439e-05 1231.25 273.117 5.02452 5.02472 -0.400002 -0.592812 1.43005e+06 
305 -0.02955 8.8344e-05 1231.25 273.115 5.02449 5.02472 -0.42473 -0.616954 1.43005e+06 
306 -0.02945 8.8344e-05 1231.25 273.117 5.02452 5.02479 -0.451352 -0.617301 1.43014e+06 
307 -0.02935 8.8344e-05 1231.25 273.119 5.02456 5.02494 -0.505966 -0.705596 1.43033e+06 
308 -0.02925 8.83437e-05 1231.25 273.118 5.02453 5.02488 -0.51243 -0.688384 1.43032e+06 
309 -0.02915 8.83438e-05 1231.25 273.119 5.02456 5.02486 -0.522805 -0.675359 1.43029e+06 
310 -0.02905 8.83439e-05 1231.25 273.12 5.02457 5.0248 -0.486174 -0.592303 1.43029e+06 
282 -0.03185 8.8343e-05 1231.25 273.109 5.02432 5.02447 -0.220373 -0.354365 1.42933e+06 
283 -0.03175 8.8344e-05 1231.25 273.11 5.02441 5.02453 -0.260966 -0.462476 1.4294e+06 
284 -0.03165 8.83437e-05 1231.25 273.113 5.02444 5.02471 -0.263278 -0.457416 1.42952e+06 
285 -0.03155 8.83435e-05 1231.25 273.113 5.02442 5.02465 -0.335471 -0.559021 1.42959e+06 
286 -0.03145 8.83441e-05 1231.25 273.114 5.02449 5.02477 -0.371281 -0.607695 1.42972e+06 
287 -0.03135 8.83436e-05 1231.25 273.11 5.02438 5.02453 -0.35108 -0.558658 1.42954e+06 
288 -0.03125 8.83436e-05 1231.25 273.113 5.02443 5.02456 -0.313247 -0.52452 1.42958e+06 
332 -0.02685 8.83442e-05 1231.25 273.128 5.02474 5.02488 -0.883323 -1.24679 1.43194e+06 
321 -0.02795 8.8344e-05 1231.25 273.122 5.02463 5.02499 -0.663629 -0.968238 1.43108e+06 
322 -0.02785 8.83437e-05 1231.24 273.124 5.02463 5.02497 -0.725111 -1.07966 1.4312e+06 
323 -0.02775 8.8344e-05 1231.25 273.125 5.02468 5.02491 -0.709801 -1.04756 1.43122e+06 
324 -0.02765 8.83443e-05 1231.25 273.124 5.02468 5.02481 -0.73287 -1.06149 1.43127e+06 
325 -0.02755 8.8344e-05 1231.25 273.124 5.02467 5.02483 -0.742772 -1.09781 1.43134e+06 
326 -0.02745 8.83441e-05 1231.25 273.125 5.02468 5.02491 -0.716033 -1.05675 1.43136e+06 
327 -0.02735 8.8344e-05 1231.25 273.125 5.02469 5.02491 -0.749137 -1.12756 1.43146e+06 
328 -0.02725 8.83444e-05 1231.25 273.125 5.02469 5.02494 -0.744898 -1.11646 1.4315e+06 
329 -0.02715 8.83442e-05 1231.25 273.124 5.02467 5.02483 -0.751059 -1.05069 1.43156e+06 
330 -0.02705 8.83438e-05 1231.25 273.125 5.02467 5.02471 -0.772092 -1.10305 1.43157e+06 
331 -0.02695 8.83439e-05 1231.25 273.127 5.02471 5.02483 -0.799605 -1.12404 1.43171e+06 
333 -0.02675 8.83438e-05 1231.25 273.129 5.02475 5.02495 -0.894686 -1.27428 1.43206e+06 
334 -0.02665 8.83444e-05 1231.25 273.132 5.02484 5.02503 -0.962682 -1.3521 1.43225e+06 
335 -0.02655 8.83455e-05 1231.24 273.132 5.0249 5.02531 -0.978141 -1.40203 1.43249e+06 
336 -0.02645 8.83442e-05 1231.24 273.133 5.02483 5.02508 -0.988601 -1.41298 1.43245e+06 
337 -0.02635 8.83442e-05 1231.24 273.133 5.02485 5.02517 -1.00218 -1.4288 1.43258e+06 
338 -0.02625 8.83447e-05 1231.24 273.133 5.02486 5.02521 -1.02017 -1.44996 1.43266e+06 
311 -0.02895 8.83442e-05 1231.25 273.118 5.02457 5.02484 -0.508865 -0.622722 1.43041e+06 
312 -0.02885 8.83435e-05 1231.25 273.12 5.02455 5.02489 -0.552064 -0.710583 1.43052e+06 
313 -0.02875 8.83441e-05 1231.24 273.123 5.02464 5.02499 -0.61683 -0.828948 1.43068e+06 
314 -0.02865 8.83442e-05 1231.25 273.121 5.02462 5.02504 -0.620765 -0.856674 1.43073e+06 
315 -0.02855 8.83444e-05 1231.24 273.12 5.02462 5.02498 -0.579143 -0.809785 1.43069e+06 