TITLE = "DSMC"
VARIABLES = "ID" "X" "rho" "v1" "Ttrans" "p" "p1" "q1" "mv1v1v1" "mvvv1v1"
ZONE T="Ma=4.4_inv", I=800, J=1, K=1, F=POINT
800 -0.02995 0.000305932 -391.081 1888.23 120.296 120.286 6.82351 6.9313 236485000.0
799 -0.02985 0.000305945 -391.061 1888.24 120.301 120.288 4.87295 1.79283 236486000.0
798 -0.02975 0.000305945 -391.061 1888.18 120.297 120.288 2.40776 3.13381 236485000.0
797 -0.02965 0.000305923 -391.09 1888.27 120.295 120.286 9.71475 12.2564 236481000.0
796 -0.02955 0.000305926 -391.084 1888.2 120.291 120.284 5.96679 9.7451 236473000.0
795 -0.02945 0.000305934 -391.073 1888.19 120.294 120.286 4.20789 7.43651 236476000.0
794 -0.02935 0.000305957 -391.041 1888.06 120.295 120.289 -3.49085 -0.683144 236474000.0
793 -0.02925 0.000305954 -391.047 1888.08 120.295 120.289 -2.47678 -0.900482 236475000.0
792 -0.02915 0.000305952 -391.051 1888.2 120.302 120.29 1.82214 -2.33961 236481000.0
791 -0.02905 0.00030593 -391.077 1888.21 120.294 120.285 4.78852 5.61751 236475000.0
790 -0.02895 0.00030594 -391.068 1888.2 120.297 120.288 4.51342 2.64708 236474000.0
789 -0.02885 0.000305923 -391.089 1888.27 120.294 120.285 9.89073 11.3058 236477000.0
788 -0.02875 0.000305941 -391.065 1888.22 120.299 120.288 3.7125 1.68123 236478000.0
787 -0.02865 0.000305911 -391.102 1888.16 120.283 120.281 8.10187 12.5549 236465000.0
786 -0.02855 0.000305931 -391.08 1888.17 120.291 120.285 4.61286 4.48508 236474000.0
785 -0.02845 0.000305915 -391.102 1888.21 120.288 120.284 8.89895 11.2291 236474000.0
784 -0.02835 0.000305926 -391.085 1888.19 120.291 120.285 6.00239 5.53054 236475000.0
783 -0.02825 0.000305916 -391.101 1888.1 120.281 120.284 4.68441 10.8855 236471000.0
782 -0.02815 0.000305925 -391.086 1888.2 120.291 120.284 7.16141 8.38214 236474000.0
781 -0.02805 0.00030593 -391.079 1888.17 120.291 120.286 4.96935 6.84293 236476000.0
780 -0.02795 0.000305928 -391.084 1888.24 120.295 120.285 8.8378 10.0574 236478000.0
779 -0.02785 0.000305918 -391.097 1888.21 120.289 120.284 7.58458 12.8652 236473000.0
778 -0.02775 0.000305948 -391.059 1888.22 120.301 120.289 4.13211 1.81834 236480000.0
777 -0.02765 0.000305952 -391.05 1888.19 120.301 120.289 3.02758 1.5759 236479000.0
776 -0.02755 0.00030598 -391.017 1888.08 120.305 120.293 -5.51214 -7.79327 236479000.0
775 -0.02745 0.000305955 -391.05 1888.16 120.3 120.291 0.336807 2.66053 236483000.0
774 -0.02735 0.000305955 -391.049 1888.12 120.298 120.289 0.381468 3.23048 236475000.0
773 -0.02725 0.000305952 -391.053 1888.11 120.296 120.289 -1.24439 0.681874 236474000.0
772 -0.02715 0.000305949 -391.055 1888.14 120.296 120.287 1.10869 2.2718 236474000.0
771 -0.02705 0.000305932 -391.076 1888.1 120.287 120.286 3.51369 9.89947 236471000.0
770 -0.02695 0.00030596 -391.041 1888.14 120.301 120.29 -0.0835302 -3.74818 236477000.0
769 -0.02685 0.000305945 -391.062 1888.14 120.295 120.288 1.71153 1.39754 236475000.0
768 -0.02675 0.000305964 -391.035 1888.02 120.295 120.29 -5.14366 -4.45571 236472000.0
767 -0.02665 0.000305965 -391.036 1888.0 120.294 120.29 -6.3649 -6.32886 236471000.0
766 -0.02655 0.000305954 -391.046 1887.98 120.288 120.29 -4.46009 -1.95879 236472000.0
765 -0.02645 0.000305945 -391.059 1888.04 120.289 120.287 -0.820304 2.60546 236464000.0
764 -0.02635 0.00030595 -391.051 1888.08 120.293 120.289 -1.27336 -0.449929 236471000.0
763 -0.02625 0.000305949 -391.052 1888.01 120.288 120.29 -3.50619 1.05064 236470000.0
762 -0.02615 0.000305967 -391.026 1888.04 120.297 120.292 -4.75632 -4.89058 236474000.0
761 -0.02605 0.00030596 -391.036 1888.11 120.299 120.291 -2.25594 -2.69025 236474000.0
760 -0.02595 0.000305952 -391.046 1888.17 120.299 120.29 2.86622 3.45815 236481000.0
759 -0.02585 0.000305929 -391.074 1888.16 120.29 120.286 4.90683 11.3447 236474000.0
758 -0.02575 0.000305936 -391.067 1888.14 120.291 120.287 3.75789 9.97313 236476000.0
757 -0.02565 0.000305931 -391.077 1888.17 120.291 120.288 4.74217 9.45243 236482000.0
756 -0.02555 0.000305937 -391.065 1888.16 120.293 120.287 4.34079 7.89912 236474000.0
755 -0.02545 0.000305958 -391.035 1888.14 120.3 120.29 -0.766223 -4.37127 236480000.0
754 -0.02535 0.000305958 -391.042 1888.11 120.298 120.289 -0.0931722 -2.21323 236477000.0
753 -0.02525 0.00030595 -391.051 1888.14 120.297 120.29 0.972813 -1.3371 236484000.0
752 -0.02515 0.000305963 -391.032 1888.04 120.296 120.292 -4.19794 -5.88717 236483000.0
751 -0.02505 0.000305969 -391.025 1888.15 120.305 120.292 -0.842397 -7.34031 236486000.0
750 -0.02495 0.000305968 -391.03 1888.1 120.301 120.292 -2.89971 -6.91953 236487000.0
749 -0.02485 0.000305956 -391.042 1888.06 120.294 120.288 -1.50082 -3.58851 236478000.0
748 -0.02475 0.000305959 -391.04 1888.03 120.293 120.29 -3.98676 -4.93576 236481000.0
747 -0.02465 0.000305932 -391.076 1888.09 120.287 120.286 2.95467 6.38788 236477000.0
746 -0.02455 0.000305947 -391.056 1888.07 120.292 120.288 0.273112 2.34256 236480000.0
745 -0.02445 0.00030595 -391.053 1888.02 120.289 120.288 -2.05388 1.64897 236479000.0
744 -0.02435 0.000305965 -391.034 1888.09 120.3 120.293 -1.85422 -1.80681 236488000.0
743 -0.02425 0.000305969 -391.027 1888.1 120.302 120.292 -2.07054 -4.85023 236491000.0
742 -0.02415 0.000305973 -391.022 1888.09 120.303 120.294 -4.08518 -6.28753 236493000.0
741 -0.02405 0.000305977 -391.018 1888.02 120.3 120.292 -7.11946 -10.113 236482000.0
740 -0.02395 0.000305972 -391.021 1888.0 120.297 120.294 -6.82711 -5.58717 236490000.0
739 -0.02385 0.00030596 -391.041 1888.04 120.295 120.29 -3.40626 -0.80888 236481000.0
738 -0.02375 0.000305983 -391.006 1888.01 120.301 120.295 -8.21528 -9.88211 236487000.0
737 -0.02365 0.000305961 -391.04 1888.07 120.297 120.291 -3.40766 -2.90629 236487000.0
736 -0.02355 0.000305941 -391.062 1888.05 120.287 120.288 0.00151118 4.84917 236486000.0
735 -0.02345 0.000305962 -391.033 1888.08 120.298 120.291 -2.55084 -5.38658 236486000.0
734 -0.02335 0.000305969 -391.027 1888.07 120.3 120.292 -3.31901 -9.25703 236482000.0
733 -0.02325 0.000305978 -391.018 1887.99 120.298 120.294 -8.25662 -13.1796 236480000.0
732 -0.02315 0.000305973 -391.018 1888.0 120.297 120.292 -6.59155 -8.33586 236475000.0
731 -0.02305 0.000305954 -391.047 1888.06 120.293 120.29 -1.21557 -1.99832 236475000.0
730 -0.02295 0.000305951 -391.052 1888.06 120.292 120.289 -0.243006 0.921276 236474000.0
729 -0.02285 0.000305959 -391.041 1888.06 120.295 120.29 -1.45696 -3.37278 236479000.0
728 -0.02275 0.000305942 -391.061 1888.08 120.29 120.287 2.0589 5.04759 236473000.0
727 -0.02265 0.000305951 -391.049 1888.07 120.293 120.289 -0.355089 1.63528 236476000.0
726 -0.02255 0.000305957 -391.041 1888.07 120.295 120.289 -0.809276 -1.64295 236472000.0
725 -0.02245 0.000305954 -391.044 1888.07 120.294 120.289 -1.01387 0.358411 236474000.0
724 -0.02235 0.000305961 -391.035 1888.06 120.296 120.291 -3.19712 -4.01646 236477000.0
723 -0.02225 0.000305945 -391.052 1888.05 120.289 120.288 -0.052891 3.03032 236477000.0
722 -0.02215 0.000305972 -391.016 1888.07 120.301 120.293 -3.77067 -4.84674 236488000.0
721 -0.02205 0.000305968 -391.022 1888.09 120.301 120.289 -2.48501 -2.21162 236477000.0
720 -0.02195 0.000305968 -391.028 1888.18 120.307 120.292 -0.484055 -0.119249 236490000.0
719 -0.02185 0.000305972 -391.018 1888.13 120.305 120.291 -1.10183 -0.578418 236484000.0
718 -0.02175 0.000305973 -391.016 1888.11 120.304 120.292 -3.44992 -3.89054 236486000.0
717 -0.02165 0.000305965 -391.025 1888.08 120.299 120.292 -2.21486 1.48037 236485000.0
716 -0.02155 0.000305966 -391.027 1888.13 120.303 120.291 -2.23923 1.37733 236485000.0
715 -0.02145 0.000305965 -391.024 1888.14 120.303 120.289 0.364497 -0.548554 236476000.0
714 -0.02135 0.000305945 -391.051 1888.16 120.297 120.288 2.51119 5.66343 236480000.0
713 -0.02125 0.000305956 -391.038 1888.11 120.297 120.289 -0.814766 1.14263 236475000.0
712 -0.02115 0.000305956 -391.037 1888.14 120.299 120.29 1.03417 1.43792 236479000.0
711 -0.02105 0.00030596 -391.034 1888.13 120.3 120.291 0.372629 2.56266 236481000.0
710 -0.02095 0.000305959 -391.035 1888.14 120.3 120.291 0.295291 3.84747 236480000.0
709 -0.02085 0.00030596 -391.033 1888.09 120.298 120.291 -1.29884 4.39959 236478000.0
708 -0.02075 0.000305959 -391.035 1888.11 120.299 120.288 -0.620967 2.13429 236473000.0
707 -0.02065 0.000305966 -391.027 1888.13 120.302 120.292 -0.534482 -1.0193 236481000.0
706 -0.02055 0.000305956 -391.039 1888.16 120.3 120.29 2.69827 1.94959 236480000.0
705 -0.02045 0.000305963 -391.029 1888.09 120.299 120.291 -1.18751 -1.93789 236477000.0
704 -0.02035 0.000305969 -391.021 1888.06 120.299 120.293 -4.55794 -4.74239 236480000.0
703 -0.02025 0.000305954 -391.039 1888.14 120.298 120.29 0.536989 0.0393429 236476000.0
702 -0.02015 0.000305946 -391.047 1888.15 120.296 120.288 1.89636 1.16158 236475000.0
701 -0.02005 0.000305957 -391.037 1888.14 120.3 120.291 0.566711 -2.34407 236476000.0
700 -0.01995 0.000305951 -391.04 1888.14 120.298 120.289 0.73385 0.0690856 236472000.0
699 -0.01985 0.000305958 -391.034 1888.09 120.297 120.292 -0.846061 -0.804311 236475000.0
698 -0.01975 0.000305969 -391.016 1888.1 120.302 120.293 -3.97631 -6.07937 236479000.0
697 -0.01965 0.000305954 -391.035 1888.14 120.298 120.291 0.941347 1.75207 236481000.0
696 -0.01955 0.000305961 -391.026 1888.1 120.299 120.29 -2.83172 -2.76176 236473000.0
695 -0.01945 0.000305975 -391.01 1888.09 120.303 120.296 -5.1464 -6.31429 236480000.0
694 -0.01935 0.000305979 -391.003 1888.08 120.305 120.296 -4.74344 -6.74396 236484000.0
693 -0.01925 0.000305969 -391.018 1888.12 120.303 120.294 -2.90423 -5.96802 236480000.0
692 -0.01915 0.000305965 -391.022 1888.16 120.304 120.293 -0.18927 -3.17998 236482000.0
691 -0.01905 0.000305969 -391.014 1888.13 120.304 120.295 -1.12622 -3.72045 236491000.0
690 -0.01895 0.000305948 -391.044 1888.13 120.295 120.291 1.08444 5.29603 236483000.0
689 -0.01885 0.00030596 -391.027 1888.15 120.302 120.293 -0.41173 -0.355054 236487000.0
688 -0.01875 0.000305953 -391.037 1888.1 120.295 120.291 -0.226765 2.75055 236479000.0
687 -0.01865 0.000305958 -391.032 1888.09 120.297 120.292 -0.97561 0.0973269 236482000.0
686 -0.01855 0.000305956 -391.032 1888.07 120.295 120.292 -1.9924 0.739376 236479000.0
685 -0.01845 0.000305982 -391.002 1888.07 120.305 120.296 -4.70772 -4.79761 236481000.0
684 -0.01835 0.000305971 -391.017 1888.09 120.302 120.294 -2.37975 -0.564451 236481000.0
683 -0.01825 0.000305974 -391.011 1888.16 120.308 120.294 -1.14167 -0.883808 236484000.0
682 -0.01815 0.000305974 -391.011 1888.12 120.305 120.295 -2.09437 -0.100613 236483000.0
681 -0.01805 0.000305971 -391.016 1888.15 120.306 120.294 -0.459733 -0.0308719 236485000.0
680 -0.01795 0.000305979 -391.005 1888.09 120.305 120.296 -4.99349 -2.84548 236487000.0
679 -0.01785 0.000305972 -391.016 1888.07 120.301 120.295 -3.01377 2.25183 236482000.0
678 -0.01775 0.000305989 -390.995 1888.0 120.303 120.297 -7.62476 -3.58979 236482000.0
677 -0.01765 0.000305976 -391.009 1888.1 120.304 120.295 -2.36992 -0.173574 236484000.0
676 -0.01755 0.000305985 -390.999 1888.04 120.304 120.295 -6.12249 -2.89528 236480000.0
675 -0.01745 0.000305989 -390.992 1888.09 120.309 120.297 -5.17794 -5.03876 236488000.0
674 -0.01735 0.000305981 -391.007 1888.17 120.311 120.296 -0.497897 -0.178028 236491000.0
673 -0.01725 0.000305967 -391.02 1888.13 120.303 120.294 -0.296991 6.70311 236489000.0
672 -0.01715 0.00030598 -391.006 1888.12 120.307 120.296 -1.60067 -0.220592 236495000.0
671 -0.01705 0.000305973 -391.015 1888.15 120.307 120.295 -0.791725 1.34027 236495000.0
670 -0.01695 0.000305984 -391.003 1888.09 120.307 120.297 -3.53245 -1.01779 236497000.0
669 -0.01685 0.000305969 -391.02 1888.22 120.31 120.293 3.13541 4.23965 236494000.0
668 -0.01675 0.00030597 -391.019 1888.16 120.306 120.294 2.24045 4.32246 236497000.0
667 -0.01665 0.000305957 -391.036 1888.19 120.303 120.292 3.64426 9.33322 236491000.0
666 -0.01655 0.000305939 -391.061 1888.23 120.298 120.289 7.95652 14.8898 236487000.0
665 -0.01645 0.000305961 -391.029 1888.1 120.299 120.293 -0.459413 4.93941 236486000.0
664 -0.01635 0.000305958 -391.038 1888.1 120.297 120.292 0.310281 3.49765 236482000.0
663 -0.01625 0.00030596 -391.029 1888.12 120.299 120.293 0.805607 1.37388 236483000.0
662 -0.01615 0.000305939 -391.061 1888.14 120.293 120.289 4.56447 11.5148 236477000.0
661 -0.01605 0.000305956 -391.038 1888.12 120.298 120.292 2.30697 7.4301 236484000.0
660 -0.01595 0.000305952 -391.04 1888.18 120.301 120.291 3.73682 7.66164 236482000.0
659 -0.01585 0.000305957 -391.039 1888.03 120.293 120.293 -2.33347 6.42981 236482000.0
658 -0.01575 0.000305964 -391.025 1888.1 120.3 120.292 -0.12991 7.06885 236477000.0
657 -0.01565 0.000305958 -391.034 1888.18 120.303 120.293 2.83551 8.28316 236482000.0
656 -0.01555 0.000305968 -391.019 1888.17 120.306 120.293 1.09159 4.4908 236486000.0
655 -0.01545 0.000305977 -391.011 1888.13 120.307 120.296 -2.50451 0.464975 236488000.0
654 -0.01535 0.000305971 -391.02 1888.22 120.31 120.295 3.12201 4.02757 236489000.0
653 -0.01525 0.000305968 -391.019 1888.23 120.31 120.294 2.63495 6.36064 236487000.0
652 -0.01515 0.000305977 -391.011 1888.21 120.312 120.297 0.965077 3.55374 236492000.0
651 -0.01505 0.000305981 -391.005 1888.21 120.313 120.295 0.690983 0.941873 236487000.0
650 -0.01495 0.000305973 -391.017 1888.15 120.306 120.295 -0.800065 1.73947 236479000.0
649 -0.01485 0.000305962 -391.029 1888.14 120.302 120.294 0.597072 5.71932 236476000.0
648 -0.01475 0.00030597 -391.022 1888.13 120.304 120.295 -0.356877 3.73486 236481000.0
647 -0.01465 0.000305973 -391.018 1888.11 120.304 120.295 -2.17612 1.06805 236477000.0
646 -0.01455 0.000305982 -391.01 1888.06 120.305 120.297 -4.17505 -2.54779 236475000.0
645 -0.01445 0.000305966 -391.028 1888.08 120.299 120.293 -0.573111 1.74313 236470000.0
644 -0.01435 0.000305955 -391.042 1888.11 120.297 120.292 1.28466 6.22672 236465000.0
643 -0.01425 0.000305963 -391.034 1888.08 120.298 120.294 -0.871022 4.43048 236463000.0
642 -0.01415 0.000305974 -391.017 1888.07 120.302 120.294 -3.39388 -0.934082 236456000.0
641 -0.01405 0.000305957 -391.043 1888.14 120.3 120.292 2.12599 6.08949 236458000.0
640 -0.01395 0.000305948 -391.051 1888.2 120.3 120.291 5.66521 9.65305 236459000.0
639 -0.01385 0.000305939 -391.066 1888.25 120.299 120.288 8.93797 12.1056 236455000.0
638 -0.01375 0.000305937 -391.068 1888.23 120.298 120.288 9.25696 13.7892 236453000.0
637 -0.01365 0.000305937 -391.07 1888.19 120.295 120.288 8.3148 14.5008 236454000.0
636 -0.01355 0.000305963 -391.037 1888.18 120.305 120.294 2.95635 4.80246 236460000.0
635 -0.01345 0.000305938 -391.07 1888.33 120.304 120.29 13.4294 15.7706 236462000.0
634 -0.01335 0.000305951 -391.05 1888.27 120.305 120.29 8.12203 8.05668 236455000.0
633 -0.01325 0.000305951 -391.051 1888.15 120.298 120.29 4.46469 9.08556 236450000.0
632 -0.01315 0.000305968 -391.03 1888.14 120.304 120.295 0.474717 2.13677 236456000.0
631 -0.01305 0.000305954 -391.047 1888.19 120.302 120.292 4.8459 7.01763 236456000.0
630 -0.01295 0.000305951 -391.054 1888.15 120.298 120.291 4.18751 8.72014 236452000.0
629 -0.01285 0.000305927 -391.083 1888.17 120.29 120.287 7.58709 16.3217 236444000.0
628 -0.01275 0.000305942 -391.063 1888.13 120.293 120.288 4.2691 10.2975 236444000.0
627 -0.01265 0.000305944 -391.061 1888.2 120.298 120.29 7.55078 8.96067 236450000.0
626 -0.01255 0.000305932 -391.075 1888.22 120.295 120.287 8.39282 11.5374 236444000.0
625 -0.01245 0.00030593 -391.079 1888.21 120.294 120.288 9.67687 14.4505 236446000.0
624 -0.01235 0.000305925 -391.085 1888.25 120.294 120.287 10.9544 14.5892 236441000.0
623 -0.01225 0.000305913 -391.097 1888.2 120.286 120.285 12.0499 19.6073 236439000.0
622 -0.01215 0.000305912 -391.101 1888.23 120.288 120.286 12.6555 19.2256 236437000.0
621 -0.01205 0.000305894 -391.124 1888.24 120.281 120.282 15.4296 24.9843 236431000.0
620 -0.01195 0.000305886 -391.135 1888.24 120.278 120.281 17.0609 27.9576 236428000.0
619 -0.01185 0.000305887 -391.131 1888.26 120.28 120.28 17.2298 24.4818 236424000.0
618 -0.01175 0.00030588 -391.144 1888.26 120.277 120.28 18.7979 27.3488 236423000.0
617 -0.01165 0.000305883 -391.138 1888.32 120.282 120.281 19.4969 25.371 236421000.0
616 -0.01155 0.000305869 -391.153 1888.31 120.276 120.279 22.8449 31.9816 236422000.0
615 -0.01145 0.000305854 -391.175 1888.34 120.272 120.277 25.1516 37.2507 236418000.0
614 -0.01135 0.000305877 -391.143 1888.3 120.279 120.279 20.4497 28.8426 236414000.0
613 -0.01125 0.000305877 -391.143 1888.32 120.28 120.28 21.7544 28.7686 236416000.0
612 -0.01115 0.000305886 -391.132 1888.34 120.284 120.28 20.0666 23.6707 236411000.0
611 -0.01105 0.000305853 -391.174 1888.36 120.273 120.277 26.3665 37.8389 236403000.0
610 -0.01095 0.000305856 -391.169 1888.32 120.271 120.277 23.804 34.0898 236398000.0
609 -0.01085 0.000305854 -391.174 1888.26 120.267 120.277 22.9341 34.0657 236390000.0
608 -0.01075 0.000305841 -391.185 1888.39 120.27 120.276 28.5955 37.6103 236393000.0
607 -0.01065 0.000305846 -391.179 1888.38 120.271 120.276 27.2917 33.229 236384000.0
606 -0.01055 0.000305835 -391.193 1888.34 120.265 120.274 28.2908 34.493 236373000.0
605 -0.01045 0.000305832 -391.199 1888.38 120.266 120.275 29.0912 36.3443 236377000.0
604 -0.01035 0.000305827 -391.203 1888.4 120.265 120.272 30.913 38.7193 236367000.0
603 -0.01025 0.000305811 -391.222 1888.48 120.264 120.27 36.3144 41.8332 236362000.0
602 -0.01015 0.000305809 -391.23 1888.42 120.259 120.271 35.1839 41.7746 236356000.0
601 -0.01005 0.0003058 -391.24 1888.45 120.258 120.269 37.7753 45.5674 236346000.0
600 -0.00995 0.000305784 -391.26 1888.55 120.258 120.266 43.91 49.9037 236345000.0
599 -0.00985 0.000305778 -391.267 1888.51 120.253 120.265 42.7035 49.0787 236332000.0
598 -0.00975 0.00030577 -391.278 1888.61 120.256 120.266 47.3964 51.0403 236335000.0
597 -0.00965 0.000305751 -391.303 1888.56 120.245 120.261 48.9732 56.0513 236317000.0
596 -0.00955 0.000305751 -391.299 1888.68 120.253 120.262 52.8257 56.0999 236319000.0
595 -0.00945 0.000305731 -391.328 1888.59 120.239 120.258 53.1339 61.6196 236302000.0
594 -0.00935 0.000305728 -391.329 1888.59 120.238 120.258 53.4896 61.088 236293000.0
593 -0.00925 0.000305697 -391.37 1888.7 120.233 120.253 61.3817 67.9649 236280000.0
592 -0.00915 0.000305684 -391.387 1888.68 120.227 120.25 64.1413 70.8824 236263000.0
591 -0.00905 0.000305639 -391.443 1888.68 120.209 120.243 69.758 80.9828 236245000.0
590 -0.00895 0.000305644 -391.439 1888.72 120.213 120.245 70.6454 75.2545 236237000.0
589 -0.00885 0.000305617 -391.471 1888.77 120.206 120.24 77.3272 82.4097 236218000.0
588 -0.00875 0.000305591 -391.502 1888.88 120.203 120.236 84.1343 89.9624 236200000.0
587 -0.00865 0.000305586 -391.515 1888.84 120.198 120.236 83.6567 87.9277 236189000.0
586 -0.00855 0.000305561 -391.54 1888.87 120.19 120.232 88.5526 93.0368 236165000.0
585 -0.00845 0.000305543 -391.567 1888.82 120.18 120.23 89.0541 94.2043 236151000.0
584 -0.00835 0.00030552 -391.597 1888.92 120.178 120.225 96.6601 98.94 236127000.0
583 -0.00825 0.000305495 -391.627 1888.94 120.169 120.222 101.583 102.774 236107000.0
582 -0.00815 0.000305452 -391.681 1889.05 120.159 120.215 111.341 114.196 236080000.0
581 -0.00805 0.000305436 -391.701 1889.07 120.154 120.212 115.101 115.789 236056000.0
580 -0.00795 0.000305367 -391.791 1889.2 120.135 120.202 129.559 134.638 236030000.0
579 -0.00785 0.000305329 -391.84 1889.24 120.123 120.196 137.362 140.952 236002000.0
578 -0.00775 0.000305272 -391.91 1889.26 120.102 120.188 147.24 153.902 235971000.0
577 -0.00765 0.000305252 -391.937 1889.3 120.096 120.185 151.24 152.222 235944000.0
576 -0.00755 0.000305217 -391.978 1889.36 120.086 120.179 158.398 155.45 235908000.0
575 -0.00745 0.000305158 -392.058 1889.41 120.066 120.169 168.332 168.273 235867000.0
574 -0.00735 0.000305106 -392.12 1889.41 120.046 120.162 177.22 174.846 235832000.0
573 -0.00725 0.000305016 -392.238 1889.47 120.014 120.148 192.486 193.594 235781000.0
572 -0.00715 0.000304961 -392.306 1889.48 119.993 120.14 202.331 204.787 235735000.0
571 -0.00705 0.000304902 -392.385 1889.59 119.977 120.131 214.883 210.919 235694000.0
570 -0.00695 0.000304822 -392.488 1889.71 119.953 120.116 231.856 222.728 235637000.0
569 -0.00685 0.000304737 -392.601 1889.79 119.925 120.104 248.298 237.778 235588000.0
568 -0.00675 0.000304639 -392.726 1889.76 119.884 120.088 262.333 255.913 235522000.0
567 -0.00665 0.000304542 -392.851 1889.89 119.854 120.074 281.586 271.717 235464000.0
566 -0.00655 0.000304418 -393.008 1890.03 119.815 120.053 306.212 292.197 235388000.0
565 -0.00645 0.000304309 -393.153 1890.19 119.782 120.037 328.412 309.74 235327000.0
564 -0.00635 0.000304203 -393.286 1890.21 119.741 120.02 345.97 322.448 235245000.0
563 -0.00625 0.000304073 -393.456 1890.34 119.698 120.001 370.134 342.247 235174000.0
562 -0.00615 0.000303915 -393.658 1890.36 119.638 119.974 395.418 366.156 235079000.0
561 -0.00605 0.000303772 -393.843 1890.5 119.59 119.954 423.003 386.444 234996000.0
560 -0.00595 0.000303629 -394.027 1890.59 119.539 119.931 447.89 401.98 234897000.0
559 -0.00585 0.000303441 -394.274 1890.71 119.473 119.9 482.081 433.322 234789000.0
558 -0.00575 0.000303266 -394.501 1890.77 119.408 119.874 510.64 453.308 234681000.0
557 -0.00565 0.000303087 -394.741 1890.81 119.34 119.846 539.919 470.851 234559000.0
556 -0.00555 0.000302865 -395.022 1890.96 119.262 119.809 580.821 501.235 234428000.0
555 -0.00545 0.000302601 -395.372 1891.19 119.172 119.767 630.432 544.385 234287000.0
554 -0.00535 0.000302358 -395.686 1891.26 119.081 119.728 669.232 572.346 234134000.0
553 -0.00525 0.000302093 -396.034 1891.43 118.987 119.686 718.609 608.424 233979000.0
552 -0.00515 0.000301784 -396.439 1891.58 118.875 119.638 771.828 651.629 233809000.0
551 -0.00505 0.00030148 -396.843 1891.68 118.762 119.589 822.543 686.587 233626000.0
550 -0.00495 0.000301153 -397.269 1891.81 118.641 119.536 878.852 722.102 233431000.0
549 -0.00485 0.00030075 -397.806 1891.93 118.49 119.472 946.587 781.754 233217000.0
548 -0.00475 0.000300339 -398.349 1892.08 118.337 119.405 1017.23 835.824 232987000.0
547 -0.00465 0.000299898 -398.933 1892.26 118.175 119.334 1092.93 893.374 232743000.0
546 -0.00455 0.00029944 -399.545 1892.31 117.997 119.26 1166.5 945.001 232476000.0
545 -0.00445 0.000298942 -400.211 1892.4 117.807 119.178 1248.61 1003.4 232190000.0
544 -0.00435 0.0002984 -400.938 1892.61 117.606 119.09 1343.08 1068.8 231891000.0
543 -0.00425 0.00029781 -401.736 1892.75 117.382 118.995 1441.9 1140.42 231571000.0
542 -0.00415 0.000297178 -402.588 1892.82 117.138 118.89 1545.48 1212.06 231209000.0
541 -0.00405 0.000296498 -403.51 1892.89 116.874 118.776 1657.33 1291.15 230830000.0
540 -0.00395 0.000295757 -404.523 1893.0 116.588 118.655 1780.25 1379.58 230428000.0
539 -0.00385 0.000294957 -405.621 1893.07 116.277 118.521 1911.16 1474.4 229991000.0
538 -0.00375 0.000294111 -406.787 1893.02 115.941 118.38 2046.62 1572.18 229523000.0
537 -0.00365 0.000293199 -408.052 1892.96 115.577 118.226 2193.55 1675.76 229016000.0
536 -0.00355 0.00029219 -409.46 1893.09 115.188 118.054 2363.05 1800.58 228478000.0
535 -0.00345 0.000291135 -410.944 1893.03 114.768 117.875 2535.16 1924.22 227902000.0
534 -0.00335 0.000289981 -412.58 1893.03 114.313 117.676 2726.06 2065.58 227284000.0
533 -0.00325 0.000288746 -414.342 1893.02 113.826 117.461 2931.71 2218.39 226622000.0
532 -0.00315 0.000287445 -416.224 1892.86 113.303 117.233 3145.82 2376.15 225916000.0
531 -0.00305 0.000286022 -418.29 1892.78 112.738 116.982 3383.44 2558.47 225160000.0
530 -0.00295 0.000284511 -420.512 1892.63 112.133 116.713 3635.97 2750.56 224352000.0
529 -0.00285 0.000282896 -422.914 1892.42 111.484 116.421 3905.26 2959.48 223487000.0
528 -0.00275 0.000281161 -425.521 1892.05 110.779 116.105 4193.9 3190.41 222553000.0
527 -0.00265 0.000279323 -428.324 1891.78 110.039 115.766 4506.16 3437.64 221573000.0
526 -0.00255 0.000277373 -431.334 1891.33 109.245 115.4 4834.84 3702.23 220519000.0
525 -0.00245 0.000275281 -434.614 1890.84 108.393 115.004 5192.8 3999.68 219403000.0
524 -0.00235 0.000273069 -438.133 1890.31 107.492 114.579 5574.53 4320.8 218220000.0
523 -0.00225 0.000270752 -441.882 1889.59 106.539 114.124 5974.37 4656.01 216960000.0
522 -0.00215 0.000268302 -445.923 1888.81 105.531 113.638 6402.25 5021.56 215631000.0
521 -0.00205 0.000265673 -450.33 1887.89 104.447 113.104 6865.59 5438.65 214205000.0
520 -0.00195 0.000262936 -455.025 1886.82 103.312 112.538 7352.98 5882.7 212716000.0
519 -0.00185 0.000260072 -460.034 1885.43 102.111 111.934 7861.0 6356.5 211141000.0
518 -0.00175 0.000257053 -465.438 1883.93 100.846 111.282 8405.04 6878.35 209476000.0
517 -0.00165 0.000253889 -471.239 1882.22 99.5142 110.583 8982.81 7449.47 207731000.0
516 -0.00155 0.0002506 -477.424 1880.29 98.124 109.837 9589.84 8059.38 205899000.0
515 -0.00145 0.000247198 -483.995 1878.06 96.6772 109.046 10223.1 8709.07 203987000.0
514 -0.00135 0.000243679 -490.986 1875.57 95.1745 108.205 10887.5 9404.67 201995000.0
513 -0.00125 0.000240031 -498.45 1872.74 93.6085 107.307 11583.1 10155.9 199924000.0
512 -0.00115 0.000236281 -506.362 1869.44 91.9835 106.356 12303.3 10955.5 197773000.0
511 -0.00105 0.000232422 -514.769 1865.79 90.3043 105.347 13054.7 11810.8 195550000.0
510 -0.00095 0.000228478 -523.657 1861.65 88.5752 104.279 13829.1 12716.8 193255000.0
509 -0.00085 0.000224432 -533.096 1856.97 86.7876 103.145 14631.1 13687.7 190886000.0
508 -0.00075 0.00022033 -543.023 1851.75 84.9625 101.955 15452.8 14704.2 188467000.0
507 -0.00065 0.00021619 -553.422 1845.93 83.104 100.708 16287.5 15758.6 185994000.0
506 -0.00055 0.000212005 -564.348 1839.38 81.2057 99.3987 17134.7 16862.8 183475000.0
505 -0.00045 0.000207803 -575.761 1832.09 79.2808 98.033 17987.9 18003.2 180919000.0
504 -0.00035 0.000203582 -587.698 1824.05 77.3299 96.6028 18848.8 19183.6 178329000.0
503 -0.00025 0.000199357 -600.155 1815.13 75.3545 95.1115 19708.7 20397.4 175714000.0
502 -0.00015 0.000195168 -613.039 1805.29 73.3712 93.5707 20556.9 21625.7 173086000.0
501 -5e-05 0.000190979 -626.485 1794.6 71.3709 91.9611 21404.1 22886.5 170448000.0
500 5e-05 0.000186853 -640.324 1782.85 69.3723 90.3075 22226.7 24142.4 167810000.0
499 0.00015 0.000182771 -654.622 1770.17 67.3738 88.5967 23032.8 25403.6 165177000.0
498 0.00025 0.000178748 -669.353 1756.28 65.374 86.8368 23806.7 26660.8 162553000.0
497 0.00035 0.000174815 -684.417 1741.29 63.39 85.0352 24542.6 27886.7 159937000.0
496 0.00045 0.00017096 -699.848 1725.23 61.4203 83.1927 25241.7 29087.6 157349000.0
495 0.00055 0.000167205 -715.568 1708.02 59.4722 81.3145 25893.9 30248.2 154778000.0
494 0.00065 0.000163559 -731.519 1689.63 57.5487 79.4088 26489.8 31350.8 152224000.0
493 0.00075 0.000160019 -747.697 1670.15 55.6543 77.4761 27033.8 32396.1 149698000.0
492 0.00085 0.0001566 -764.031 1649.59 53.7947 75.5259 27517.8 33368.3 147187000.0
491 0.00095 0.00015329 -780.521 1627.87 51.9642 73.5564 27938.7 34270.6 144695000.0
490 0.00105 0.000150112 -797.058 1605.15 50.1764 71.5821 28291.6 35081.1 142212000.0
489 0.00115 0.000147037 -813.722 1581.27 48.4176 69.5915 28578.3 35813.5 139737000.0
488 0.00125 0.000144091 -830.358 1556.48 46.7034 67.6048 28796.8 36448.8 137275000.0
487 0.00135 0.000141267 -846.961 1530.82 45.0333 65.6239 28947.8 36987.5 134817000.0
486 0.00145 0.000138549 -863.571 1504.26 43.4005 63.6395 29031.9 37432.4 132356000.0
485 0.00155 0.000135967 -879.977 1476.94 41.8184 61.6809 29042.5 37768.7 129881000.0
484 0.00165 0.000133508 -896.18 1449.06 40.2869 59.7466 28988.1 38003.5 127406000.0
483 0.00175 0.00013115 -912.298 1420.5 38.7954 57.8222 28872.0 38143.5 124913000.0
482 0.00185 0.000128899 -928.225 1391.38 37.348 55.9205 28692.8 38186.9 122402000.0
481 0.00195 0.00012677 -943.814 1362.09 35.9576 54.0597 28460.2 38133.1 119890000.0
480 0.00205 0.00012475 -959.108 1332.4 34.6134 52.2336 28166.9 37984.3 117345000.0
479 0.00215 0.000122821 -974.166 1302.49 33.3131 50.4348 27824.9 37750.9 114782000.0
478 0.00225 0.000121005 -988.782 1272.56 32.0666 48.6894 27434.5 37433.1 112201000.0
477 0.00235 0.000119271 -1003.16 1242.47 30.8595 46.972 27001.5 37042.2 109602000.0
476 0.00245 0.000117625 -1017.21 1212.39 29.6971 45.2962 26529.2 36582.1 106989000.0
475 0.00255 0.000116069 -1030.83 1182.48 28.5813 43.6682 26020.5 36055.5 104357000.0
474 0.00265 0.000114597 -1044.08 1152.84 27.5112 42.0873 25485.0 35473.9 101729000.0
473 0.00275 0.000113207 -1056.9 1123.48 26.4855 40.5559 24920.7 34836.8 99083000.0
472 0.00285 0.000111884 -1069.4 1094.4 25.4983 39.0641 24334.8 34155.5 96439400.0
471 0.00295 0.000110637 -1081.46 1065.79 24.5551 37.6239 23730.5 33431.5 93792800.0
470 0.00305 0.000109461 -1093.07 1037.75 23.6549 36.2363 23114.8 32675.8 91161800.0
469 0.00315 0.000108341 -1104.37 1009.97 22.7863 34.888 22481.8 31891.1 88530000.0
468 0.00325 0.000107289 -1115.21 982.97 21.9616 33.5933 21846.4 31083.1 85924800.0
467 0.00335 0.000106284 -1125.76 956.31 21.1658 32.3336 21200.4 30253.4 83326200.0
466 0.00345 0.000105346 -1135.78 930.481 20.4124 31.1364 20555.9 29415.5 80761700.0
465 0.00355 0.000104449 -1145.53 905.072 19.686 29.9717 19906.8 28562.3 78212700.0
464 0.00365 0.00010361 -1154.81 880.6 18.9997 28.8636 19267.7 27709.6 75714400.0
463 0.00375 0.000102813 -1163.76 856.606 18.3399 27.7949 18626.9 26853.0 73238000.0
462 0.00385 0.000102061 -1172.32 833.463 17.714 26.7721 17997.9 26000.4 70813700.0
461 0.00395 0.000101352 -1180.53 810.942 17.1157 25.792 17374.4 25152.3 68425200.0
460 0.00405 0.000100686 -1188.35 789.374 16.5508 24.8581 16768.2 24314.1 66099800.0
459 0.00415 0.000100044 -1195.97 768.139 16.0029 23.9483 16162.7 23477.9 63799600.0
458 0.00425 9.94415e-05 -1203.22 747.622 15.4817 23.0818 15569.0 22655.8 61549700.0
457 0.00435 9.88713e-05 -1210.15 727.837 14.9856 22.2536 14987.7 21846.8 59346300.0
456 0.00445 9.83364e-05 -1216.74 708.971 14.5182 21.4674 14428.7 21058.8 57224500.0
455 0.00455 9.78265e-05 -1223.07 690.553 14.0677 20.7102 13875.6 20282.5 55133800.0
454 0.00465 9.73488e-05 -1229.09 672.938 13.6419 19.9917 13341.4 19527.7 53111500.0
453 0.00475 9.68962e-05 -1234.81 656.121 13.2392 19.3082 12827.0 18794.7 51160000.0