ITEM: TIMESTEP
20000
ITEM: NUMBER OF CELLS
800
ITEM: BOX BOUNDS os pp pp
-0.05 0.03
-0.001 0.001
-0.001 0.001
ITEM: CELLS id f_1[1] f_1[2] f_1[3] f_1[4] f_1[5] f_1[6] f_1[7] f_1[8] f_1[9] 
1 -0.04995 8.83407e-05 1354.41 273.105 5.02413 5.023 -0.120028 -0.109287 1.42658e+06 
2 -0.04985 8.8341e-05 1354.41 273.105 5.02413 5.02311 -0.176865 -0.193743 1.42671e+06 
3 -0.04975 8.83409e-05 1354.41 273.106 5.02414 5.02321 -0.202848 -0.274428 1.42685e+06 
4 -0.04965 8.8341e-05 1354.41 273.106 5.02416 5.02318 -0.225811 -0.333196 1.42694e+06 
5 -0.04955 8.83409e-05 1354.41 273.106 5.02416 5.02322 -0.226123 -0.385636 1.42699e+06 
6 -0.04945 8.8341e-05 1354.41 273.109 5.0242 5.02333 -0.248681 -0.435705 1.4271e+06 
7 -0.04935 8.83405e-05 1354.41 273.107 5.02414 5.0232 -0.260279 -0.429062 1.42707e+06 
8 -0.04925 8.8341e-05 1354.41 273.107 5.02418 5.02326 -0.279961 -0.439342 1.42716e+06 
9 -0.04915 8.83415e-05 1354.41 273.108 5.02423 5.02329 -0.291225 -0.473749 1.42722e+06 
10 -0.04905 8.83401e-05 1354.41 273.11 5.02418 5.02329 -0.311113 -0.482064 1.42727e+06 
11 -0.04895 8.8341e-05 1354.41 273.108 5.02419 5.02348 -0.290717 -0.499188 1.42736e+06 
12 -0.04885 8.83411e-05 1354.41 273.108 5.0242 5.02343 -0.309113 -0.541379 1.42735e+06 
13 -0.04875 8.83417e-05 1354.41 273.111 5.02429 5.02354 -0.32143 -0.551347 1.42747e+06 
14 -0.04865 8.83404e-05 1354.41 273.111 5.02422 5.02337 -0.364909 -0.562238 1.42742e+06 
15 -0.04855 8.8341e-05 1354.41 273.109 5.02422 5.0235 -0.325302 -0.501582 1.42753e+06 
16 -0.04845 8.83409e-05 1354.41 273.11 5.02423 5.02345 -0.349603 -0.487387 1.42748e+06 
17 -0.04835 8.83414e-05 1354.41 273.111 5.02427 5.0235 -0.352127 -0.511355 1.42753e+06 
18 -0.04825 8.83411e-05 1354.41 273.111 5.02426 5.02361 -0.365105 -0.515158 1.42761e+06 
19 -0.04815 8.83412e-05 1354.41 273.113 5.02431 5.02361 -0.382902 -0.560955 1.42762e+06 
20 -0.04805 8.83408e-05 1354.41 273.111 5.02424 5.02363 -0.407085 -0.579743 1.42766e+06 
21 -0.04795 8.83415e-05 1354.41 273.113 5.02432 5.02368 -0.407492 -0.630992 1.42769e+06 
22 -0.04785 8.83409e-05 1354.41 273.114 5.02431 5.02377 -0.431996 -0.665627 1.42775e+06 
23 -0.04775 8.83405e-05 1354.41 273.113 5.02425 5.02371 -0.458307 -0.681821 1.42774e+06 
24 -0.04765 8.83419e-05 1354.41 273.114 5.02435 5.02381 -0.442924 -0.666433 1.4278e+06 
25 -0.04755 8.83413e-05 1354.41 273.114 5.02433 5.02372 -0.47395 -0.689859 1.42781e+06 
34 -0.04665 8.83407e-05 1354.41 273.111 5.02423 5.0236 -0.405639 -0.663702 1.42792e+06 
33 -0.04675 8.83412e-05 1354.41 273.112 5.02429 5.02362 -0.423781 -0.680844 1.42792e+06 
35 -0.04655 8.83411e-05 1354.41 273.113 5.02428 5.02372 -0.373903 -0.622377 1.42797e+06 
36 -0.04645 8.83415e-05 1354.41 273.113 5.02432 5.02378 -0.366732 -0.599729 1.42801e+06 
37 -0.04635 8.83409e-05 1354.41 273.112 5.02425 5.02361 -0.399833 -0.612053 1.42795e+06 
38 -0.04625 8.83413e-05 1354.41 273.113 5.0243 5.02379 -0.372814 -0.590673 1.42801e+06 
39 -0.04615 8.83407e-05 1354.41 273.111 5.02423 5.02366 -0.344069 -0.539308 1.42793e+06 
40 -0.04605 8.83406e-05 1354.41 273.112 5.02424 5.02364 -0.337081 -0.55764 1.42794e+06 
41 -0.04595 8.83405e-05 1354.41 273.11 5.0242 5.02363 -0.356748 -0.611695 1.42792e+06 
42 -0.04585 8.83412e-05 1354.41 273.112 5.02428 5.02371 -0.330874 -0.52941 1.42796e+06 
43 -0.04575 8.83408e-05 1354.41 273.111 5.02423 5.02352 -0.355367 -0.567344 1.42786e+06 
44 -0.04565 8.83409e-05 1354.41 273.113 5.02428 5.02366 -0.364397 -0.554932 1.42796e+06 
45 -0.04555 8.83405e-05 1354.41 273.11 5.02421 5.02355 -0.343692 -0.521685 1.42792e+06 
46 -0.04545 8.83411e-05 1354.41 273.111 5.02427 5.02364 -0.347847 -0.53644 1.42795e+06 
47 -0.04535 8.83407e-05 1354.41 273.111 5.02424 5.0236 -0.3374 -0.508671 1.42793e+06 
48 -0.04525 8.83406e-05 1354.41 273.111 5.02423 5.02364 -0.347037 -0.512953 1.428e+06 
49 -0.04515 8.83407e-05 1354.41 273.111 5.02422 5.02361 -0.359131 -0.52257 1.42796e+06 
50 -0.04505 8.83406e-05 1354.41 273.109 5.0242 5.02363 -0.316348 -0.478324 1.42796e+06 
26 -0.04745 8.8341e-05 1354.41 273.116 5.02434 5.02374 -0.489143 -0.71821 1.42784e+06 
27 -0.04735 8.83402e-05 1354.41 273.115 5.02428 5.02371 -0.489242 -0.712358 1.42789e+06 
28 -0.04725 8.83416e-05 1354.41 273.114 5.02434 5.02388 -0.497661 -0.761265 1.42797e+06 
29 -0.04715 8.83414e-05 1354.41 273.116 5.02437 5.02386 -0.465189 -0.694581 1.42794e+06 
30 -0.04705 8.83411e-05 1354.41 273.114 5.02431 5.02379 -0.451412 -0.708242 1.42792e+06 
31 -0.04695 8.83408e-05 1354.41 273.113 5.02428 5.02363 -0.444844 -0.705217 1.4279e+06 
32 -0.04685 8.83411e-05 1354.41 273.112 5.02428 5.02362 -0.413604 -0.685016 1.42791e+06 
67 -0.04335 8.83411e-05 1354.41 273.111 5.02425 5.02347 -0.290787 -0.355403 1.42798e+06 
65 -0.04355 8.8341e-05 1354.41 273.11 5.02423 5.02354 -0.317908 -0.4595 1.42803e+06 
66 -0.04345 8.83412e-05 1354.41 273.113 5.02429 5.02356 -0.302657 -0.372538 1.42802e+06 
68 -0.04325 8.83407e-05 1354.41 273.11 5.02421 5.02345 -0.272736 -0.335897 1.42799e+06 
69 -0.04315 8.83411e-05 1354.41 273.111 5.02426 5.0234 -0.254157 -0.305548 1.42796e+06 
70 -0.04305 8.83418e-05 1354.41 273.108 5.02425 5.02348 -0.233797 -0.289382 1.42798e+06 
71 -0.04295 8.83402e-05 1354.41 273.108 5.02415 5.02339 -0.244749 -0.303554 1.42798e+06 
72 -0.04285 8.83408e-05 1354.41 273.109 5.02421 5.02343 -0.222426 -0.243352 1.42797e+06 
73 -0.04275 8.83413e-05 1354.41 273.11 5.02424 5.0234 -0.246272 -0.270443 1.42797e+06 
74 -0.04265 8.83406e-05 1354.41 273.109 5.0242 5.02335 -0.25349 -0.334567 1.42799e+06 
75 -0.04255 8.83413e-05 1354.41 273.111 5.02426 5.02343 -0.251077 -0.338786 1.42806e+06 
51 -0.04495 8.83413e-05 1354.41 273.11 5.02425 5.02365 -0.307227 -0.451786 1.42797e+06 
52 -0.04485 8.83409e-05 1354.41 273.111 5.02425 5.02366 -0.34129 -0.492918 1.42797e+06 
53 -0.04475 8.83412e-05 1354.41 273.111 5.02427 5.02368 -0.341432 -0.492124 1.42799e+06 
54 -0.04465 8.83409e-05 1354.41 273.112 5.02426 5.02368 -0.332169 -0.470969 1.42801e+06 
55 -0.04455 8.83411e-05 1354.41 273.112 5.02428 5.02367 -0.343082 -0.511167 1.42801e+06 
56 -0.04445 8.83412e-05 1354.41 273.113 5.02429 5.0238 -0.326884 -0.461964 1.42808e+06 
57 -0.04435 8.83415e-05 1354.41 273.109 5.02425 5.02364 -0.31306 -0.451078 1.42799e+06 
58 -0.04425 8.83416e-05 1354.41 273.111 5.02429 5.02376 -0.295136 -0.44784 1.42807e+06 
59 -0.04415 8.83416e-05 1354.41 273.111 5.02429 5.0237 -0.321117 -0.483425 1.42801e+06 
60 -0.04405 8.83413e-05 1354.41 273.111 5.02427 5.02376 -0.322478 -0.464381 1.4281e+06 
61 -0.04395 8.83408e-05 1354.41 273.111 5.02424 5.02366 -0.310745 -0.479659 1.4281e+06 
62 -0.04385 8.83417e-05 1354.41 273.11 5.02426 5.02368 -0.315423 -0.500936 1.4281e+06 
63 -0.04375 8.8341e-05 1354.41 273.111 5.02425 5.0237 -0.306219 -0.459162 1.4281e+06 
64 -0.04365 8.83412e-05 1354.41 273.112 5.02429 5.02364 -0.308921 -0.502161 1.42806e+06 
100 -0.04005 8.83413e-05 1354.41 273.104 5.02414 5.0235 -0.135661 -0.104495 1.42816e+06 
97 -0.04035 8.83406e-05 1354.41 273.106 5.02414 5.02341 -0.182074 -0.154642 1.42816e+06 
98 -0.04025 8.83413e-05 1354.41 273.106 5.02417 5.02347 -0.1642 -0.124453 1.42816e+06 
99 -0.04015 8.83407e-05 1354.41 273.105 5.02413 5.02339 -0.150814 -0.107522 1.4281e+06 
76 -0.04245 8.83409e-05 1354.41 273.108 5.0242 5.02337 -0.281807 -0.373986 1.42809e+06 
77 -0.04235 8.83407e-05 1354.41 273.11 5.02422 5.02336 -0.307639 -0.389279 1.4281e+06 
78 -0.04225 8.83416e-05 1354.41 273.112 5.0243 5.02349 -0.286773 -0.369235 1.42817e+06 
79 -0.04215 8.83406e-05 1354.41 273.108 5.02417 5.0234 -0.25669 -0.329282 1.42808e+06 
80 -0.04205 8.83404e-05 1354.41 273.108 5.02416 5.02336 -0.208353 -0.27096 1.42804e+06 
81 -0.04195 8.8341e-05 1354.41 273.108 5.0242 5.02341 -0.212281 -0.248776 1.42806e+06 
82 -0.04185 8.83407e-05 1354.41 273.107 5.02416 5.02347 -0.186671 -0.247481 1.42809e+06 
83 -0.04175 8.83417e-05 1354.41 273.107 5.02422 5.02361 -0.229192 -0.293579 1.42817e+06 
84 -0.04165 8.8341e-05 1354.41 273.109 5.02421 5.02361 -0.223112 -0.293924 1.42822e+06 
85 -0.04155 8.83417e-05 1354.41 273.107 5.02422 5.02357 -0.227312 -0.318966 1.42816e+06 
86 -0.04145 8.83406e-05 1354.41 273.108 5.02417 5.02365 -0.211051 -0.293124 1.42824e+06 
87 -0.04135 8.83409e-05 1354.41 273.107 5.02418 5.02361 -0.170819 -0.228199 1.42815e+06 
88 -0.04125 8.83413e-05 1354.41 273.106 5.02418 5.0236 -0.177959 -0.221514 1.42816e+06 
89 -0.04115 8.83413e-05 1354.41 273.104 5.02415 5.0236 -0.178837 -0.202083 1.42814e+06 
90 -0.04105 8.83412e-05 1354.41 273.107 5.02419 5.02363 -0.206068 -0.260961 1.42821e+06 
91 -0.04095 8.83416e-05 1354.41 273.108 5.02422 5.0237 -0.197078 -0.209396 1.42823e+06 
92 -0.04085 8.83414e-05 1354.41 273.106 5.02418 5.02358 -0.196203 -0.216664 1.42819e+06 
93 -0.04075 8.83417e-05 1354.41 273.108 5.02424 5.02369 -0.216514 -0.248503 1.4283e+06 
94 -0.04065 8.83406e-05 1354.41 273.108 5.02417 5.02353 -0.213716 -0.247229 1.42822e+06 
95 -0.04055 8.8341e-05 1354.41 273.107 5.02418 5.02354 -0.182103 -0.209572 1.42821e+06 
96 -0.04045 8.83418e-05 1354.41 273.105 5.02418 5.02348 -0.202623 -0.222706 1.42818e+06 
101 -0.03995 8.83407e-05 1354.41 273.106 5.02413 5.02349 -0.129103 -0.123768 1.42818e+06 
102 -0.03985 8.83416e-05 1354.41 273.102 5.02413 5.02356 -0.150158 -0.180426 1.42821e+06 
103 -0.03975 8.83414e-05 1354.41 273.105 5.02416 5.02361 -0.141686 -0.173981 1.42825e+06 
104 -0.03965 8.83405e-05 1354.41 273.105 5.0241 5.02346 -0.139147 -0.127906 1.42822e+06 
105 -0.03955 8.83414e-05 1354.41 273.104 5.02414 5.02348 -0.120853 -0.13929 1.42821e+06 
106 -0.03945 8.83409e-05 1354.41 273.103 5.02409 5.02346 -0.130654 -0.150827 1.42818e+06 
107 -0.03935 8.83411e-05 1354.41 273.105 5.02414 5.02339 -0.121984 -0.0945897 1.42817e+06 
108 -0.03925 8.83413e-05 1354.41 273.103 5.02411 5.02336 -0.113007 -0.0975721 1.42813e+06 
109 -0.03915 8.83406e-05 1354.41 273.103 5.02408 5.02335 -0.130551 -0.0806539 1.42816e+06 
110 -0.03905 8.83408e-05 1354.41 273.105 5.02413 5.02349 -0.15719 -0.102992 1.42824e+06 
111 -0.03895 8.83413e-05 1354.41 273.102 5.02409 5.02351 -0.138941 -0.114149 1.42823e+06 
112 -0.03885 8.83405e-05 1354.41 273.103 5.02408 5.02356 -0.145935 -0.133535 1.42826e+06 
113 -0.03875 8.83411e-05 1354.41 273.104 5.02412 5.02353 -0.15498 -0.140471 1.42828e+06 
114 -0.03865 8.8341e-05 1354.41 273.105 5.02414 5.02351 -0.154835 -0.115765 1.42824e+06 
115 -0.03855 8.83408e-05 1354.41 273.103 5.02409 5.02354 -0.142378 -0.159997 1.42829e+06 
116 -0.03845 8.83413e-05 1354.41 273.106 5.02418 5.02364 -0.166131 -0.150543 1.42834e+06 
117 -0.03835 8.83408e-05 1354.41 273.104 5.02411 5.02349 -0.192387 -0.200473 1.42827e+06 
118 -0.03825 8.83415e-05 1354.41 273.106 5.02419 5.02357 -0.168076 -0.162542 1.42832e+06 
119 -0.03815 8.83411e-05 1354.41 273.105 5.02415 5.02366 -0.181316 -0.237799 1.42835e+06 
120 -0.03805 8.83413e-05 1354.41 273.106 5.02418 5.02374 -0.192189 -0.252023 1.42841e+06 
121 -0.03795 8.83417e-05 1354.41 273.105 5.02418 5.02374 -0.226263 -0.303731 1.42841e+06 
122 -0.03785 8.8341e-05 1354.41 273.107 5.02418 5.02382 -0.244604 -0.341727 1.42847e+06 
123 -0.03775 8.83422e-05 1354.41 273.107 5.02425 5.02392 -0.259104 -0.361212 1.42858e+06 
124 -0.03765 8.83407e-05 1354.41 273.107 5.02415 5.02383 -0.273077 -0.399398 1.42855e+06 
125 -0.03755 8.83419e-05 1354.41 273.109 5.02427 5.02404 -0.259044 -0.387615 1.42872e+06 
134 -0.03665 8.83413e-05 1354.41 273.108 5.0242 5.02379 -0.258509 -0.292751 1.42867e+06 
129 -0.03715 8.83405e-05 1354.41 273.107 5.02415 5.02375 -0.225426 -0.288299 1.42859e+06 
130 -0.03705 8.83415e-05 1354.41 273.106 5.0242 5.02379 -0.251686 -0.307874 1.42861e+06 
131 -0.03695 8.83406e-05 1354.41 273.109 5.02418 5.02372 -0.260381 -0.30543 1.4286e+06 
132 -0.03685 8.83409e-05 1354.41 273.106 5.02415 5.02374 -0.275795 -0.369678 1.42863e+06 
133 -0.03675 8.83418e-05 1354.41 273.11 5.02427 5.02379 -0.264996 -0.335386 1.42869e+06 
135 -0.03655 8.83407e-05 1354.41 273.109 5.02419 5.02382 -0.275446 -0.322703 1.42872e+06 
136 -0.03645 8.83416e-05 1354.4 273.105 5.02418 5.02384 -0.24962 -0.287902 1.42867e+06 
137 -0.03635 8.83417e-05 1354.41 273.107 5.02422 5.02382 -0.234978 -0.21372 1.42864e+06 
138 -0.03625 8.83411e-05 1354.41 273.108 5.0242 5.02378 -0.246896 -0.24289 1.42862e+06 
139 -0.03615 8.83411e-05 1354.41 273.107 5.02417 5.0238 -0.251511 -0.26131 1.42862e+06 
140 -0.03605 8.83414e-05 1354.41 273.107 5.0242 5.02379 -0.22825 -0.278588 1.42864e+06 
141 -0.03595 8.83404e-05 1354.41 273.105 5.02411 5.02369 -0.231161 -0.317245 1.42862e+06 
142 -0.03585 8.83414e-05 1354.41 273.108 5.02421 5.0238 -0.214132 -0.271122 1.42869e+06 
143 -0.03575 8.83406e-05 1354.41 273.104 5.0241 5.02371 -0.218721 -0.261047 1.42862e+06 
144 -0.03565 8.83411e-05 1354.41 273.107 5.02419 5.02375 -0.216378 -0.260126 1.42868e+06 
145 -0.03555 8.83411e-05 1354.41 273.106 5.02417 5.02379 -0.186699 -0.239401 1.42866e+06 
146 -0.03545 8.83407e-05 1354.41 273.103 5.02408 5.02371 -0.209097 -0.296354 1.42862e+06 
147 -0.03535 8.83413e-05 1354.41 273.106 5.02417 5.02394 -0.205143 -0.299768 1.42878e+06 
148 -0.03525 8.83413e-05 1354.4 273.107 5.02419 5.02392 -0.214482 -0.354202 1.42881e+06 
149 -0.03515 8.83417e-05 1354.4 273.104 5.02417 5.02407 -0.213187 -0.338883 1.42883e+06 
150 -0.03505 8.83415e-05 1354.4 273.105 5.02417 5.02414 -0.238936 -0.375302 1.42889e+06 
126 -0.03745 8.83404e-05 1354.41 273.106 5.02413 5.02387 -0.239746 -0.316267 1.42858e+06 
127 -0.03735 8.83417e-05 1354.41 273.107 5.02421 5.02387 -0.215276 -0.289935 1.42858e+06 
128 -0.03725 8.83411e-05 1354.41 273.105 5.02415 5.02373 -0.219474 -0.301339 1.42853e+06 
167 -0.03335 8.83412e-05 1354.4 273.109 5.02422 5.0242 -0.28007 -0.312585 1.42914e+06 
161 -0.03395 8.83413e-05 1354.4 273.109 5.02423 5.02429 -0.271323 -0.334468 1.42908e+06 
162 -0.03385 8.83417e-05 1354.4 273.108 5.02423 5.02426 -0.247182 -0.284793 1.42908e+06 
163 -0.03375 8.8342e-05 1354.4 273.109 5.02426 5.02419 -0.296998 -0.338174 1.42906e+06 
164 -0.03365 8.83413e-05 1354.4 273.107 5.0242 5.02414 -0.264808 -0.293871 1.42904e+06 
165 -0.03355 8.83411e-05 1354.4 273.11 5.02424 5.02431 -0.286004 -0.313067 1.42916e+06 
166 -0.03345 8.83418e-05 1354.4 273.109 5.02426 5.02426 -0.328361 -0.391579 1.4292e+06 
168 -0.03325 8.83405e-05 1354.4 273.109 5.02418 5.02419 -0.287636 -0.344335 1.42918e+06 
169 -0.03315 8.83417e-05 1354.4 273.108 5.02423 5.02411 -0.31676 -0.376924 1.42916e+06 
170 -0.03305 8.83409e-05 1354.4 273.109 5.0242 5.02414 -0.348128 -0.420513 1.42925e+06 
171 -0.03295 8.83413e-05 1354.4 273.111 5.02426 5.02418 -0.332647 -0.393689 1.42929e+06 
172 -0.03285 8.83411e-05 1354.4 273.109 5.02423 5.02421 -0.336831 -0.388648 1.42932e+06 
173 -0.03275 8.83408e-05 1354.4 273.11 5.02422 5.02416 -0.344152 -0.38629 1.42933e+06 
174 -0.03265 8.83412e-05 1354.4 273.109 5.02422 5.02413 -0.340133 -0.360531 1.4293e+06 
175 -0.03255 8.83416e-05 1354.4 273.11 5.02427 5.02417 -0.329832 -0.33865 1.42939e+06 
151 -0.03495 8.83419e-05 1354.4 273.108 5.02424 5.02429 -0.254493 -0.436523 1.42899e+06 
152 -0.03485 8.83415e-05 1354.4 273.108 5.02423 5.02432 -0.272147 -0.45191 1.42905e+06 
153 -0.03475 8.83419e-05 1354.4 273.11 5.02429 5.0244 -0.289197 -0.493366 1.42905e+06 
154 -0.03465 8.83422e-05 1354.4 273.11 5.02429 5.02435 -0.252818 -0.414153 1.42899e+06 
155 -0.03455 8.83415e-05 1354.4 273.108 5.02422 5.02433 -0.24146 -0.352597 1.42896e+06 
156 -0.03445 8.83415e-05 1354.4 273.107 5.0242 5.02419 -0.229594 -0.30551 1.42895e+06 
157 -0.03435 8.83421e-05 1354.4 273.109 5.02429 5.02427 -0.22762 -0.274104 1.42902e+06 
158 -0.03425 8.83413e-05 1354.4 273.107 5.02419 5.02417 -0.225609 -0.284425 1.429e+06 
159 -0.03415 8.83418e-05 1354.4 273.106 5.02421 5.0242 -0.221259 -0.274235 1.429e+06 
160 -0.03405 8.83419e-05 1354.4 273.107 5.02422 5.02425 -0.269844 -0.329313 1.42904e+06 
200 -0.03005 8.83425e-05 1354.39 273.119 5.02448 5.02496 -0.636224 -0.87783 1.43107e+06 
193 -0.03075 8.8342e-05 1354.4 273.115 5.02437 5.02495 -0.487706 -0.68349 1.43047e+06 
194 -0.03065 8.8342e-05 1354.4 273.115 5.02439 5.02489 -0.493417 -0.703757 1.43054e+06 
195 -0.03055 8.83426e-05 1354.4 273.115 5.02441 5.02499 -0.528046 -0.723006 1.43069e+06 
196 -0.03045 8.83421e-05 1354.4 273.117 5.02442 5.02494 -0.507755 -0.671489 1.4307e+06 
197 -0.03035 8.8342e-05 1354.4 273.115 5.02439 5.02493 -0.541279 -0.717276 1.4308e+06 
198 -0.03025 8.83423e-05 1354.4 273.117 5.02443 5.02497 -0.599544 -0.815171 1.43099e+06 
199 -0.03015 8.83419e-05 1354.4 273.12 5.02446 5.02504 -0.626193 -0.85787 1.43111e+06 
176 -0.03245 8.83408e-05 1354.4 273.109 5.02421 5.0242 -0.353159 -0.356475 1.42949e+06 
177 -0.03235 8.83414e-05 1354.4 273.11 5.02426 5.02431 -0.367383 -0.431572 1.42958e+06 
178 -0.03225 8.83406e-05 1354.4 273.109 5.0242 5.02424 -0.360051 -0.38456 1.42955e+06 
179 -0.03215 8.83421e-05 1354.4 273.109 5.02428 5.02434 -0.32732 -0.375234 1.42957e+06 
180 -0.03205 8.83416e-05 1354.4 273.112 5.0243 5.0244 -0.369369 -0.437215 1.42968e+06 
181 -0.03195 8.8342e-05 1354.4 273.11 5.02429 5.02438 -0.369988 -0.464112 1.42971e+06 
182 -0.03185 8.83413e-05 1354.4 273.111 5.02426 5.02448 -0.379049 -0.494383 1.42979e+06 
183 -0.03175 8.83413e-05 1354.4 273.112 5.02428 5.0246 -0.396179 -0.555183 1.42989e+06 
184 -0.03165 8.83419e-05 1354.4 273.111 5.02431 5.02474 -0.398671 -0.573429 1.42998e+06 
185 -0.03155 8.83415e-05 1354.4 273.113 5.02431 5.0248 -0.43388 -0.665598 1.43003e+06 
186 -0.03145 8.83416e-05 1354.4 273.113 5.02431 5.02471 -0.407315 -0.607482 1.43008e+06 
187 -0.03135 8.83417e-05 1354.4 273.112 5.0243 5.02477 -0.415098 -0.593389 1.43011e+06 
188 -0.03125 8.83422e-05 1354.4 273.112 5.02433 5.02481 -0.423871 -0.639792 1.43016e+06 
189 -0.03115 8.83409e-05 1354.4 273.114 5.0243 5.02484 -0.450304 -0.642783 1.43029e+06 
190 -0.03105 8.8342e-05 1354.4 273.114 5.02436 5.02492 -0.462261 -0.663341 1.43036e+06 
191 -0.03095 8.83424e-05 1354.4 273.115 5.02439 5.02489 -0.506155 -0.694811 1.43045e+06 
192 -0.03085 8.83419e-05 1354.4 273.117 5.02442 5.02496 -0.500699 -0.685949 1.43048e+06 
201 -0.02995 8.83422e-05 1354.4 273.12 5.02448 5.02498 -0.64649 -0.895734 1.43119e+06 
225 -0.02755 8.8342e-05 1354.39 273.144 5.02491 5.02601 -1.51126 -2.22992 1.43482e+06 
202 -0.02985 8.83419e-05 1354.4 273.12 5.02447 5.025 -0.73368 -1.02847 1.43136e+06 
203 -0.02975 8.83422e-05 1354.4 273.12 5.02449 5.02499 -0.728703 -0.990925 1.43137e+06 
204 -0.02965 8.83425e-05 1354.4 273.123 5.02455 5.02508 -0.748327 -1.06156 1.43154e+06 
205 -0.02955 8.83423e-05 1354.39 273.122 5.02453 5.02505 -0.794657 -1.15339 1.43172e+06 
206 -0.02945 8.83421e-05 1354.4 273.124 5.02455 5.02515 -0.842729 -1.22977 1.43185e+06 
207 -0.02935 8.83422e-05 1354.39 273.126 5.0246 5.02522 -0.829248 -1.2213 1.43193e+06 
208 -0.02925 8.83426e-05 1354.4 273.124 5.02457 5.02512 -0.833777 -1.20405 1.43191e+06 
209 -0.02915 8.8342e-05 1354.4 273.126 5.02458 5.02514 -0.842017 -1.2284 1.43197e+06 
210 -0.02905 8.83422e-05 1354.39 273.128 5.02463 5.02525 -0.911554 -1.31048 1.43211e+06 
211 -0.02895 8.8342e-05 1354.39 273.127 5.0246 5.0253 -0.962766 -1.41785 1.43235e+06 
212 -0.02885 8.83424e-05 1354.39 273.128 5.02465 5.02532 -0.933915 -1.37385 1.43229e+06 
213 -0.02875 8.83426e-05 1354.39 273.127 5.02464 5.02541 -0.980726 -1.4472 1.43252e+06 
214 -0.02865 8.83422e-05 1354.39 273.131 5.02468 5.02545 -0.996012 -1.49108 1.43259e+06 
215 -0.02855 8.83429e-05 1354.39 273.132 5.02476 5.02556 -1.10848 -1.64588 1.43293e+06 
216 -0.02845 8.8342e-05 1354.39 273.135 5.02474 5.02561 -1.13272 -1.72701 1.43306e+06 
217 -0.02835 8.83424e-05 1354.39 273.131 5.0247 5.0256 -1.12026 -1.71102 1.43305e+06 
218 -0.02825 8.83423e-05 1354.39 273.135 5.02477 5.0257 -1.19955 -1.78191 1.43336e+06 
219 -0.02815 8.83424e-05 1354.39 273.136 5.02478 5.02565 -1.22959 -1.84544 1.43351e+06 
220 -0.02805 8.83423e-05 1354.39 273.137 5.0248 5.02572 -1.2615 -1.86534 1.43365e+06 
221 -0.02795 8.83426e-05 1354.39 273.139 5.02485 5.02576 -1.28897 -1.89646 1.43384e+06 
222 -0.02785 8.8342e-05 1354.39 273.139 5.02482 5.0258 -1.3527 -2.0003 1.43404e+06 
223 -0.02775 8.83418e-05 1354.39 273.139 5.02481 5.02572 -1.40178 -2.05155 1.43413e+06 
224 -0.02765 8.83426e-05 1354.39 273.143 5.02493 5.02585 -1.47057 -2.1114 1.43453e+06 
234 -0.02665 8.83423e-05 1354.38 273.159 5.02521 5.0265 -2.01457 -3.1092 1.43709e+06 
226 -0.02745 8.83419e-05 1354.39 273.143 5.02488 5.02596 -1.59863 -2.37085 1.43503e+06 
227 -0.02735 8.83423e-05 1354.39 273.147 5.02498 5.0261 -1.64246 -2.4584 1.43528e+06 
228 -0.02725 8.8343e-05 1354.39 273.148 5.02504 5.02619 -1.6417 -2.47348 1.43539e+06 
229 -0.02715 8.83414e-05 1354.39 273.15 5.02498 5.02615 -1.71018 -2.56671 1.43572e+06 
230 -0.02705 8.83423e-05 1354.39 273.15 5.02504 5.02625 -1.76468 -2.67979 1.43595e+06 
231 -0.02695 8.83425e-05 1354.39 273.152 5.02509 5.02626 -1.80412 -2.76958 1.43611e+06 
232 -0.02685 8.83423e-05 1354.38 273.157 5.02518 5.02643 -1.9076 -2.9436 1.43655e+06 
233 -0.02675 8.83428e-05 1354.39 273.158 5.02521 5.02648 -1.93395 -3.02353 1.43675e+06 
235 -0.02655 8.83423e-05 1354.38 273.16 5.02522 5.02648 -2.05875 -3.20187 1.43732e+06 
236 -0.02645 8.83426e-05 1354.38 273.163 5.0253 5.02663 -2.16046 -3.33073 1.43777e+06 
237 -0.02635 8.83419e-05 1354.38 273.165 5.02529 5.02656 -2.21394 -3.40635 1.43793e+06 
238 -0.02625 8.83426e-05 1354.38 273.165 5.02533 5.02665 -2.27036 -3.47277 1.43829e+06 
239 -0.02615 8.83418e-05 1354.38 273.166 5.02531 5.0265 -2.31301 -3.5388 1.43845e+06 
240 -0.02605 8.83424e-05 1354.38 273.17 5.02542 5.02668 -2.40374 -3.64598 1.4389e+06 
241 -0.02595 8.83428e-05 1354.38 273.172 5.02546 5.0267 -2.45516 -3.71711 1.43923e+06 
242 -0.02585 8.83415e-05 1354.38 273.172 5.02541 5.02667 -2.6068 -3.88954 1.43972e+06 
243 -0.02575 8.83431e-05 1354.38 273.177 5.02558 5.02679 -2.68335 -4.00779 1.44009e+06 
244 -0.02565 8.8342e-05 1354.38 273.179 5.02557 5.0269 -2.79001 -4.13668 1.44045e+06 
245 -0.02555 8.8343e-05 1354.38 273.182 5.02566 5.02704 -2.79574 -4.21056 1.44075e+06 
246 -0.02545 8.83431e-05 1354.38 273.183 5.02569 5.02716 -2.94647 -4.46452 1.44131e+06 
247 -0.02535 8.83424e-05 1354.38 273.187 5.02572 5.0272 -3.08561 -4.58447 1.44174e+06 
248 -0.02525 8.83428e-05 1354.38 273.19 5.02581 5.02729 -3.15455 -4.70199 1.44215e+06 
249 -0.02515 8.83431e-05 1354.38 273.194 5.0259 5.02747 -3.33778 -4.95559 1.44285e+06 
250 -0.02505 8.83431e-05 1354.37 273.198 5.02596 5.02754 -3.46272 -5.07347 1.44331e+06 
267 -0.02335 8.83448e-05 1354.35 273.276 5.02751 5.03026 -6.27345 -9.43891 1.45556e+06 
257 -0.02435 8.83437e-05 1354.36 273.223 5.02646 5.02838 -4.3581 -6.53658 1.44727e+06 
258 -0.02425 8.83432e-05 1354.37 273.229 5.02654 5.02853 -4.56305 -6.81467 1.44803e+06 
259 -0.02415 8.83449e-05 1354.37 273.232 5.0267 5.02875 -4.69618 -7.00686 1.44883e+06 
260 -0.02405 8.83439e-05 1354.36 273.241 5.0268 5.02893 -4.97523 -7.42727 1.44975e+06 
261 -0.02395 8.83442e-05 1354.36 273.244 5.02688 5.02911 -5.12065 -7.68084 1.45041e+06 
262 -0.02385 8.83447e-05 1354.36 273.25 5.02702 5.02926 -5.38209 -8.02799 1.45145e+06 
263 -0.02375 8.83443e-05 1354.36 273.254 5.02707 5.02938 -5.50554 -8.27008 1.45203e+06 
264 -0.02365 8.83455e-05 1354.36 273.258 5.02722 5.02967 -5.67904 -8.53576 1.45287e+06 
265 -0.02355 8.83448e-05 1354.36 273.262 5.02724 5.02973 -5.85222 -8.77751 1.45361e+06 
266 -0.02345 8.8345e-05 1354.36 273.272 5.02744 5.03004 -6.08011 -9.139 1.4546e+06 
268 -0.02325 8.83462e-05 1354.35 273.282 5.0277 5.03058 -6.58278 -9.89047 1.45668e+06 
269 -0.02315 8.83446e-05 1354.35 273.295 5.02783 5.03077 -6.89248 -10.2616 1.45799e+06 
270 -0.02305 8.83463e-05 1354.34 273.295 5.02794 5.03091 -7.06697 -10.5544 1.45881e+06 
271 -0.02295 8.8346e-05 1354.35 273.303 5.02807 5.03115 -7.25965 -10.805 1.45975e+06 
272 -0.02285 8.83461e-05 1354.34 273.311 5.02823 5.03149 -7.57799 -11.3231 1.46105e+06 
273 -0.02275 8.83464e-05 1354.34 273.314 5.02829 5.03149 -7.68903 -11.4949 1.4617e+06 
274 -0.02265 8.83463e-05 1354.34 273.326 5.02851 5.03185 -8.10528 -12.0684 1.46339e+06 
275 -0.02255 8.83469e-05 1354.34 273.335 5.02871 5.03219 -8.40589 -12.5119 1.46463e+06 
251 -0.02495 8.83427e-05 1354.37 273.198 5.02595 5.02758 -3.50712 -5.21895 1.4437e+06 
252 -0.02485 8.83435e-05 1354.37 273.207 5.02616 5.02785 -3.70416 -5.51518 1.44446e+06 
253 -0.02475 8.83431e-05 1354.37 273.205 5.02611 5.02789 -3.736 -5.61971 1.44477e+06 
254 -0.02465 8.83433e-05 1354.37 273.211 5.02622 5.02808 -4.01631 -6.0283 1.44567e+06 
255 -0.02455 8.83432e-05 1354.37 273.216 5.02631 5.02818 -4.08811 -6.13547 1.44613e+06 
256 -0.02445 8.83436e-05 1354.37 273.221 5.02641 5.02837 -4.28439 -6.40819 1.44691e+06 
300 -0.02005 8.83544e-05 1354.22 273.727 5.03634 5.0451 -22.4182 -33.1332 1.52264e+06 
289 -0.02115 8.83498e-05 1354.29 273.51 5.0321 5.03811 -14.7026 -21.8499 1.49045e+06 
290 -0.02105 8.83502e-05 1354.28 273.521 5.03233 5.03848 -15.1933 -22.6156 1.49253e+06 
291 -0.02095 8.83507e-05 1354.28 273.539 5.03267 5.03904 -15.7017 -23.3248 1.49478e+06 
292 -0.02085 8.8352e-05 1354.27 273.56 5.03314 5.03973 -16.4251 -24.414 1.49768e+06 
293 -0.02075 8.83501e-05 1354.26 273.582 5.03344 5.0403 -17.2463 -25.5189 1.50084e+06 
294 -0.02065 8.83527e-05 1354.26 273.596 5.03384 5.04095 -17.8395 -26.4488 1.50335e+06 
295 -0.02055 8.83518e-05 1354.26 273.621 5.03425 5.04166 -18.6161 -27.5235 1.5066e+06 
296 -0.02045 8.83529e-05 1354.25 273.636 5.03458 5.04211 -19.1503 -28.3316 1.50902e+06 
297 -0.02035 8.83529e-05 1354.24 273.655 5.03493 5.04274 -19.9052 -29.4418 1.51222e+06 
298 -0.02025 8.83535e-05 1354.24 273.677 5.03539 5.04354 -20.7011 -30.681 1.51549e+06 
299 -0.02015 8.83535e-05 1354.24 273.698 5.03577 5.04416 -21.4411 -31.7245 1.51867e+06 
276 -0.02245 8.8347e-05 1354.33 273.349 5.02897 5.03273 -8.91937 -13.2804 1.46655e+06 
277 -0.02235 8.83477e-05 1354.33 273.359 5.02919 5.03306 -9.31988 -13.8555 1.46806e+06 
278 -0.02225 8.83476e-05 1354.32 273.375 5.02948 5.03356 -9.9346 -14.6783 1.47041e+06 
279 -0.02215 8.83478e-05 1354.32 273.388 5.02973 5.03392 -10.2636 -15.1082 1.47176e+06 
280 -0.02205 8.83477e-05 1354.32 273.393 5.02982 5.03411 -10.5524 -15.625 1.47302e+06 
281 -0.02195 8.83477e-05 1354.31 273.406 5.03005 5.03466 -10.9817 -16.2946 1.47489e+06 
282 -0.02185 8.83485e-05 1354.31 273.414 5.03026 5.03494 -11.3202 -16.7692 1.47635e+06 
283 -0.02175 8.83491e-05 1354.31 273.425 5.0305 5.03529 -11.6794 -17.3355 1.47796e+06 
284 -0.02165 8.83481e-05 1354.31 273.439 5.03069 5.03565 -12.1387 -18.0302 1.47998e+06 
285 -0.02155 8.83495e-05 1354.3 273.448 5.03093 5.03613 -12.533 -18.6772 1.4816e+06 
286 -0.02145 8.83488e-05 1354.3 273.465 5.0312 5.03646 -13.0226 -19.3559 1.48363e+06 
287 -0.02135 8.83494e-05 1354.29 273.477 5.03147 5.03698 -13.6167 -20.2246 1.48595e+06 
288 -0.02125 8.83496e-05 1354.29 273.498 5.03186 5.03766 -14.272 -21.212 1.4887e+06 
301 -0.01995 8.83549e-05 1354.22 273.744 5.03669 5.04571 -23.1069 -34.241 1.52575e+06 
321 -0.01795 8.83685e-05 1354.01 274.515 5.05164 5.07133 -50.7499 -74.9649 1.64018e+06 
322 -0.01785 8.83695e-05 1353.99 274.572 5.05275 5.07317 -52.7072 -77.8015 1.64834e+06 
323 -0.01775 8.83713e-05 1353.97 274.629 5.0539 5.07515 -54.8686 -80.9748 1.65713e+06 
324 -0.01765 8.83718e-05 1353.95 274.699 5.05524 5.07757 -57.3387 -84.6216 1.66729e+06 
325 -0.01755 8.83729e-05 1353.94 274.753 5.05628 5.07938 -59.311 -87.6405 1.67569e+06 
302 -0.01985 8.83556e-05 1354.21 273.775 5.0373 5.04671 -24.2362 -35.804 1.53003e+06 
303 -0.01975 8.83561e-05 1354.2 273.8 5.03779 5.04759 -25.1173 -37.0572 1.53391e+06 
304 -0.01965 8.83566e-05 1354.2 273.833 5.03842 5.04861 -26.2173 -38.6441 1.53818e+06 
305 -0.01955 8.83574e-05 1354.19 273.864 5.03904 5.04969 -27.352 -40.3873 1.54285e+06 
306 -0.01945 8.83569e-05 1354.18 273.885 5.03939 5.05033 -28.1226 -41.4417 1.54632e+06 
307 -0.01935 8.83579e-05 1354.17 273.923 5.04016 5.05163 -29.4939 -43.4067 1.55177e+06 
308 -0.01925 8.83589e-05 1354.16 273.951 5.04073 5.05259 -30.4489 -44.9141 1.55594e+06 
309 -0.01915 8.83595e-05 1354.15 273.984 5.04136 5.05376 -31.734 -46.8284 1.56133e+06 
310 -0.01905 8.83602e-05 1354.15 274.022 5.04211 5.05495 -32.9572 -48.5566 1.56637e+06 
311 -0.01895 8.83601e-05 1354.13 274.053 5.04266 5.056 -34.1852 -50.4601 1.57164e+06 
312 -0.01885 8.83615e-05 1354.12 274.088 5.0434 5.05719 -35.497 -52.3829 1.57711e+06 
313 -0.01875 8.8362e-05 1354.11 274.131 5.04421 5.05855 -36.8822 -54.4167 1.58301e+06 
314 -0.01865 8.83634e-05 1354.1 274.171 5.04502 5.05983 -38.3983 -56.6805 1.5892e+06 
315 -0.01855 8.83628e-05 1354.09 274.217 5.04584 5.06128 -40.0514 -59.0746 1.59591e+06 
316 -0.01845 8.83647e-05 1354.07 274.266 5.04686 5.06301 -41.8774 -61.7972 1.60312e+06 
317 -0.01835 8.83648e-05 1354.06 274.307 5.04761 5.06428 -43.3131 -63.9706 1.6096e+06 
318 -0.01825 8.83662e-05 1354.05 274.366 5.04878 5.06626 -45.2866 -66.7404 1.61709e+06 
319 -0.01815 8.83677e-05 1354.03 274.41 5.04967 5.06792 -47.0317 -69.5067 1.62462e+06 
320 -0.01805 8.83677e-05 1354.02 274.471 5.05079 5.06992 -49.1474 -72.6137 1.63327e+06 
334 -0.01665 8.83859e-05 1353.74 275.447 5.0698 5.10275 -84.1674 -124.66 1.77903e+06 
326 -0.01745 8.83742e-05 1353.92 274.817 5.05753 5.08153 -61.5775 -91.0309 1.6853e+06 
327 -0.01735 8.8376e-05 1353.9 274.893 5.05903 5.08403 -64.3305 -94.8544 1.69626e+06 
328 -0.01725 8.83765e-05 1353.88 274.956 5.06022 5.08625 -66.6084 -98.5805 1.70615e+06 
329 -0.01715 8.83786e-05 1353.86 275.033 5.06175 5.0889 -69.4054 -102.677 1.71744e+06 
330 -0.01705 8.83794e-05 1353.83 275.118 5.06338 5.09156 -72.3394 -106.912 1.72935e+06 
331 -0.01695 8.8381e-05 1353.81 275.199 5.06496 5.09438 -75.3648 -111.397 1.7417e+06 
332 -0.01685 8.83831e-05 1353.79 275.28 5.06657 5.09714 -78.2309 -115.662 1.75386e+06 
333 -0.01675 8.8384e-05 1353.76 275.358 5.06805 5.09988 -81.1203 -120.245 1.7663e+06 
335 -0.01655 8.83873e-05 1353.72 275.53 5.07141 5.1057 -87.2464 -129.579 1.79194e+06 
336 -0.01645 8.83899e-05 1353.69 275.639 5.07356 5.10934 -91.0634 -135.075 1.80752e+06 
337 -0.01635 8.83918e-05 1353.66 275.741 5.07556 5.1127 -94.8194 -140.432 1.82277e+06 
338 -0.01625 8.83931e-05 1353.63 275.85 5.07763 5.11636 -98.7114 -146.395 1.83882e+06 
339 -0.01615 8.83955e-05 1353.6 275.957 5.07974 5.11999 -102.525 -152.014 1.85482e+06 