ITEM: TIMESTEP
30000
ITEM: NUMBER OF CELLS
800
ITEM: BOX BOUNDS os pp pp
-0.05 0.03
-0.001 0.001
-0.001 0.001
ITEM: CELLS id f_1[1] f_1[2] f_1[3] f_1[4] f_1[5] f_1[6] f_1[7] f_1[8] f_1[9] 
1 -0.04995 8.83413e-05 1354.4 273.11 5.02425 5.02279 0.0639362 0.041441 1.42643e+06 
2 -0.04985 8.83413e-05 1354.4 273.109 5.02422 5.02274 0.00821233 -0.0811793 1.42652e+06 
3 -0.04975 8.83414e-05 1354.4 273.113 5.0243 5.02292 -0.0153988 -0.149313 1.42668e+06 
4 -0.04965 8.83414e-05 1354.4 273.113 5.0243 5.02285 -0.08489 -0.234133 1.42672e+06 
5 -0.04955 8.83421e-05 1354.4 273.112 5.02434 5.02295 -0.0617311 -0.216759 1.42682e+06 
6 -0.04945 8.83404e-05 1354.4 273.113 5.02425 5.02288 -0.111076 -0.28527 1.42685e+06 
7 -0.04935 8.83427e-05 1354.4 273.117 5.02445 5.02319 -0.129251 -0.325193 1.42707e+06 
8 -0.04925 8.83412e-05 1354.4 273.114 5.02432 5.02304 -0.184986 -0.414469 1.42707e+06 
9 -0.04915 8.83417e-05 1354.4 273.116 5.02438 5.0232 -0.156948 -0.387527 1.42717e+06 
10 -0.04905 8.83412e-05 1354.4 273.114 5.02433 5.02314 -0.199629 -0.431596 1.42716e+06 
11 -0.04895 8.83421e-05 1354.4 273.115 5.02438 5.0233 -0.175915 -0.407911 1.42727e+06 
12 -0.04885 8.83413e-05 1354.4 273.118 5.0244 5.02339 -0.193847 -0.404261 1.42733e+06 
13 -0.04875 8.8342e-05 1354.4 273.115 5.02439 5.02339 -0.204519 -0.400848 1.42734e+06 
14 -0.04865 8.83423e-05 1354.4 273.118 5.02444 5.02352 -0.212371 -0.387601 1.42742e+06 
15 -0.04855 8.83418e-05 1354.4 273.117 5.02441 5.0235 -0.21279 -0.376532 1.42742e+06 
16 -0.04845 8.83422e-05 1354.4 273.118 5.02445 5.02359 -0.238298 -0.428859 1.42747e+06 
17 -0.04835 8.83412e-05 1354.4 273.118 5.02438 5.02359 -0.222122 -0.458042 1.42749e+06 
18 -0.04825 8.83423e-05 1354.39 273.117 5.02443 5.02362 -0.225035 -0.483196 1.42752e+06 
19 -0.04815 8.83421e-05 1354.39 273.118 5.02445 5.02365 -0.212335 -0.468663 1.42753e+06 
20 -0.04805 8.83424e-05 1354.4 273.117 5.02444 5.02366 -0.226212 -0.457927 1.4275e+06 
21 -0.04795 8.83416e-05 1354.4 273.117 5.02439 5.02348 -0.212644 -0.46603 1.42744e+06 
22 -0.04785 8.8342e-05 1354.4 273.118 5.02444 5.02355 -0.223887 -0.477335 1.42751e+06 
23 -0.04775 8.83423e-05 1354.4 273.117 5.02443 5.02347 -0.239299 -0.485612 1.4275e+06 
24 -0.04765 8.83416e-05 1354.4 273.115 5.02435 5.02334 -0.216282 -0.442668 1.42742e+06 
25 -0.04755 8.83419e-05 1354.4 273.118 5.02443 5.02345 -0.197031 -0.437235 1.42747e+06 
34 -0.04665 8.83421e-05 1354.4 273.116 5.02441 5.02338 -0.185953 -0.329675 1.42752e+06 
33 -0.04675 8.83421e-05 1354.4 273.115 5.02439 5.0234 -0.209467 -0.410564 1.42755e+06 
35 -0.04655 8.83413e-05 1354.4 273.117 5.02438 5.02327 -0.153217 -0.329276 1.4275e+06 
36 -0.04645 8.83425e-05 1354.4 273.114 5.02439 5.02335 -0.177011 -0.348257 1.42751e+06 
37 -0.04635 8.83419e-05 1354.4 273.116 5.0244 5.0235 -0.164481 -0.335838 1.42762e+06 
38 -0.04625 8.83424e-05 1354.39 273.115 5.02439 5.02346 -0.201117 -0.387923 1.42764e+06 
39 -0.04615 8.83425e-05 1354.4 273.117 5.02444 5.02364 -0.226922 -0.425812 1.42776e+06 
40 -0.04605 8.83426e-05 1354.39 273.116 5.02443 5.0237 -0.232423 -0.445486 1.42782e+06 
41 -0.04595 8.83421e-05 1354.39 273.118 5.02444 5.02367 -0.223163 -0.452379 1.42784e+06 
42 -0.04585 8.83424e-05 1354.39 273.117 5.02445 5.02364 -0.227949 -0.400285 1.42784e+06 
43 -0.04575 8.83424e-05 1354.4 273.117 5.02444 5.02356 -0.24076 -0.417577 1.42778e+06 
44 -0.04565 8.83422e-05 1354.39 273.117 5.02443 5.02353 -0.221154 -0.389672 1.42781e+06 
45 -0.04555 8.83423e-05 1354.39 273.119 5.02447 5.02363 -0.240325 -0.419101 1.42783e+06 
46 -0.04545 8.83425e-05 1354.39 273.116 5.02442 5.02354 -0.255967 -0.428217 1.4278e+06 
47 -0.04535 8.83421e-05 1354.39 273.119 5.02445 5.02352 -0.248775 -0.385999 1.42777e+06 
48 -0.04525 8.83429e-05 1354.4 273.117 5.02446 5.02354 -0.240851 -0.365655 1.42779e+06 
49 -0.04515 8.83427e-05 1354.39 273.119 5.02449 5.02355 -0.236541 -0.376251 1.42781e+06 
50 -0.04505 8.83421e-05 1354.39 273.117 5.02443 5.02354 -0.266183 -0.42623 1.42784e+06 
26 -0.04745 8.83425e-05 1354.4 273.115 5.02441 5.02345 -0.210045 -0.448808 1.42747e+06 
27 -0.04735 8.83415e-05 1354.39 273.114 5.02433 5.0234 -0.200453 -0.450362 1.42745e+06 
28 -0.04725 8.83419e-05 1354.4 273.119 5.02444 5.02343 -0.205076 -0.436864 1.4275e+06 
29 -0.04715 8.83417e-05 1354.4 273.116 5.02438 5.02345 -0.235432 -0.494652 1.4275e+06 
30 -0.04705 8.83424e-05 1354.39 273.117 5.02444 5.02346 -0.240782 -0.459844 1.42756e+06 
31 -0.04695 8.83419e-05 1354.4 273.116 5.0244 5.02345 -0.211658 -0.431174 1.42753e+06 
32 -0.04685 8.83424e-05 1354.4 273.117 5.02445 5.02351 -0.201836 -0.431062 1.42759e+06 
67 -0.04335 8.83421e-05 1354.39 273.117 5.02442 5.0233 -0.243325 -0.249696 1.42793e+06 
65 -0.04355 8.83419e-05 1354.4 273.117 5.0244 5.0233 -0.225405 -0.25268 1.42788e+06 
66 -0.04345 8.8342e-05 1354.4 273.115 5.02438 5.02321 -0.235592 -0.269716 1.42786e+06 
68 -0.04325 8.83425e-05 1354.4 273.117 5.02444 5.02334 -0.19336 -0.147545 1.42792e+06 
69 -0.04315 8.83414e-05 1354.4 273.113 5.02432 5.02324 -0.241688 -0.210437 1.42785e+06 
70 -0.04305 8.83419e-05 1354.39 273.118 5.02443 5.02341 -0.220654 -0.173841 1.42796e+06 
71 -0.04295 8.83422e-05 1354.39 273.115 5.0244 5.02339 -0.213779 -0.16845 1.42795e+06 
72 -0.04285 8.83419e-05 1354.39 273.116 5.02439 5.02346 -0.231121 -0.217488 1.42798e+06 
73 -0.04275 8.83423e-05 1354.39 273.117 5.02443 5.0234 -0.224663 -0.170705 1.42798e+06 
74 -0.04265 8.83423e-05 1354.39 273.117 5.02443 5.02345 -0.228217 -0.149149 1.428e+06 
75 -0.04255 8.83416e-05 1354.39 273.117 5.0244 5.02354 -0.285024 -0.226326 1.42811e+06 
51 -0.04495 8.83424e-05 1354.39 273.117 5.02444 5.02349 -0.250915 -0.413662 1.42785e+06 
52 -0.04485 8.83419e-05 1354.39 273.12 5.02447 5.02348 -0.223621 -0.377379 1.42787e+06 
53 -0.04475 8.83421e-05 1354.39 273.116 5.0244 5.02336 -0.22769 -0.390129 1.42779e+06 
54 -0.04465 8.83417e-05 1354.39 273.118 5.02442 5.02337 -0.237561 -0.364241 1.42784e+06 
55 -0.04455 8.83426e-05 1354.39 273.118 5.02448 5.02344 -0.2293 -0.361872 1.42787e+06 
56 -0.04445 8.83418e-05 1354.39 273.116 5.02439 5.02335 -0.24319 -0.31643 1.42784e+06 
57 -0.04435 8.83417e-05 1354.4 273.118 5.02441 5.02336 -0.234948 -0.289981 1.42787e+06 
58 -0.04425 8.83422e-05 1354.39 273.117 5.02443 5.02344 -0.240687 -0.281066 1.42792e+06 
59 -0.04415 8.83416e-05 1354.39 273.119 5.02442 5.02339 -0.247164 -0.273201 1.42791e+06 
60 -0.04405 8.83424e-05 1354.39 273.117 5.02445 5.02336 -0.228954 -0.267523 1.42791e+06 
61 -0.04395 8.8342e-05 1354.39 273.118 5.02444 5.02333 -0.250342 -0.285636 1.4279e+06 
62 -0.04385 8.8342e-05 1354.39 273.117 5.02442 5.02329 -0.236869 -0.279875 1.42789e+06 
63 -0.04375 8.83417e-05 1354.4 273.118 5.02441 5.02332 -0.225369 -0.270768 1.42795e+06 
64 -0.04365 8.83427e-05 1354.39 273.115 5.02443 5.02333 -0.209991 -0.267826 1.42791e+06 
100 -0.04005 8.83428e-05 1354.39 273.115 5.02443 5.02352 -0.229745 -0.258653 1.42827e+06 
97 -0.04035 8.83422e-05 1354.39 273.114 5.02438 5.02348 -0.221705 -0.260145 1.42825e+06 
98 -0.04025 8.83419e-05 1354.39 273.118 5.02442 5.02363 -0.211467 -0.243532 1.42831e+06 
99 -0.04015 8.83415e-05 1354.39 273.114 5.02433 5.02344 -0.204639 -0.244611 1.4282e+06 
76 -0.04245 8.83426e-05 1354.39 273.117 5.02445 5.02356 -0.28057 -0.218889 1.42816e+06 
77 -0.04235 8.83419e-05 1354.39 273.118 5.02443 5.02355 -0.295798 -0.237904 1.42813e+06 
78 -0.04225 8.83422e-05 1354.39 273.119 5.02447 5.02362 -0.253035 -0.191377 1.42817e+06 
79 -0.04215 8.83419e-05 1354.39 273.117 5.02441 5.0236 -0.248501 -0.184795 1.42816e+06 
80 -0.04205 8.83422e-05 1354.39 273.115 5.02439 5.02347 -0.248244 -0.153941 1.42812e+06 
81 -0.04195 8.83425e-05 1354.39 273.117 5.02444 5.02355 -0.271843 -0.192957 1.42821e+06 
82 -0.04185 8.83418e-05 1354.39 273.119 5.02444 5.02358 -0.248757 -0.216559 1.42824e+06 
83 -0.04175 8.83416e-05 1354.39 273.118 5.02441 5.02368 -0.279623 -0.288641 1.42832e+06 
84 -0.04165 8.8342e-05 1354.39 273.116 5.02439 5.02369 -0.289064 -0.329465 1.42827e+06 
85 -0.04155 8.83425e-05 1354.39 273.117 5.02446 5.02375 -0.271049 -0.338694 1.42832e+06 
86 -0.04145 8.83413e-05 1354.39 273.118 5.0244 5.02374 -0.259612 -0.301215 1.42834e+06 
87 -0.04135 8.83418e-05 1354.39 273.113 5.02434 5.02354 -0.270359 -0.299384 1.42823e+06 
88 -0.04125 8.83415e-05 1354.39 273.117 5.0244 5.02362 -0.223594 -0.275454 1.42831e+06 
89 -0.04115 8.83418e-05 1354.39 273.115 5.02437 5.02364 -0.255784 -0.338535 1.42829e+06 
90 -0.04105 8.83426e-05 1354.39 273.117 5.02446 5.02378 -0.233528 -0.295257 1.42836e+06 
91 -0.04095 8.83417e-05 1354.39 273.115 5.02435 5.02353 -0.249421 -0.277333 1.42828e+06 
92 -0.04085 8.8342e-05 1354.39 273.115 5.02438 5.02342 -0.202245 -0.179239 1.42818e+06 
93 -0.04075 8.83411e-05 1354.4 273.115 5.02433 5.02325 -0.184437 -0.111427 1.42808e+06 
94 -0.04065 8.83424e-05 1354.4 273.114 5.02438 5.02341 -0.185594 -0.152606 1.42817e+06 
95 -0.04055 8.83415e-05 1354.4 273.114 5.02434 5.02331 -0.181403 -0.161276 1.42815e+06 
96 -0.04045 8.83417e-05 1354.4 273.115 5.02436 5.02344 -0.194008 -0.185264 1.42818e+06 
101 -0.03995 8.83415e-05 1354.39 273.116 5.02437 5.02352 -0.214092 -0.232781 1.42822e+06 
102 -0.03985 8.83422e-05 1354.4 273.115 5.0244 5.02342 -0.190466 -0.213458 1.4282e+06 
103 -0.03975 8.83419e-05 1354.39 273.116 5.0244 5.0235 -0.219192 -0.270253 1.42826e+06 
104 -0.03965 8.83419e-05 1354.39 273.115 5.02437 5.02351 -0.22833 -0.27322 1.42825e+06 
105 -0.03955 8.83425e-05 1354.39 273.116 5.02443 5.02361 -0.226102 -0.253454 1.4283e+06 
106 -0.03945 8.83424e-05 1354.39 273.117 5.02445 5.02362 -0.230766 -0.268707 1.42836e+06 
107 -0.03935 8.83425e-05 1354.39 273.115 5.02441 5.02361 -0.232303 -0.272609 1.42838e+06 
108 -0.03925 8.83415e-05 1354.39 273.116 5.02437 5.02348 -0.212397 -0.246406 1.4283e+06 
109 -0.03915 8.83424e-05 1354.39 273.115 5.0244 5.02352 -0.22057 -0.251256 1.42833e+06 
110 -0.03905 8.8342e-05 1354.39 273.118 5.02444 5.02363 -0.210083 -0.234214 1.42839e+06 
111 -0.03895 8.83428e-05 1354.39 273.116 5.02444 5.02365 -0.266 -0.331731 1.42845e+06 
112 -0.03885 8.83416e-05 1354.39 273.114 5.02434 5.02363 -0.220708 -0.278582 1.4284e+06 
113 -0.03875 8.83425e-05 1354.39 273.115 5.02441 5.0237 -0.213619 -0.288339 1.42841e+06 
114 -0.03865 8.83415e-05 1354.39 273.117 5.0244 5.02364 -0.21715 -0.264729 1.4284e+06 
115 -0.03855 8.83424e-05 1354.39 273.116 5.02442 5.02379 -0.214872 -0.29295 1.42846e+06 
116 -0.03845 8.83417e-05 1354.39 273.116 5.02439 5.02379 -0.216478 -0.282033 1.42848e+06 
117 -0.03835 8.83425e-05 1354.39 273.118 5.02446 5.02391 -0.228168 -0.325502 1.42857e+06 
118 -0.03825 8.83418e-05 1354.39 273.116 5.02438 5.02376 -0.227587 -0.355137 1.42847e+06 
119 -0.03815 8.8342e-05 1354.39 273.116 5.0244 5.02384 -0.216621 -0.307373 1.42856e+06 
120 -0.03805 8.8342e-05 1354.39 273.116 5.0244 5.02377 -0.217068 -0.319312 1.42852e+06 
121 -0.03795 8.83425e-05 1354.39 273.117 5.02445 5.02392 -0.249044 -0.373732 1.42863e+06 
122 -0.03785 8.83424e-05 1354.39 273.118 5.02445 5.02393 -0.251524 -0.384726 1.42867e+06 
123 -0.03775 8.83417e-05 1354.39 273.118 5.02443 5.02394 -0.294592 -0.449988 1.4287e+06 
124 -0.03765 8.83422e-05 1354.39 273.119 5.02446 5.02391 -0.306 -0.469899 1.42874e+06 
125 -0.03755 8.83423e-05 1354.39 273.117 5.02443 5.02399 -0.293584 -0.473783 1.42873e+06 
134 -0.03665 8.83422e-05 1354.39 273.122 5.02452 5.024 -0.36588 -0.547003 1.42895e+06 
129 -0.03715 8.83423e-05 1354.39 273.119 5.02447 5.02382 -0.324107 -0.463976 1.42873e+06 
130 -0.03705 8.83426e-05 1354.39 273.119 5.02448 5.02384 -0.314205 -0.469062 1.42879e+06 
131 -0.03695 8.83417e-05 1354.39 273.118 5.02442 5.02393 -0.337749 -0.518044 1.42885e+06 
132 -0.03685 8.83424e-05 1354.39 273.122 5.02454 5.02403 -0.374082 -0.549019 1.42895e+06 
133 -0.03675 8.83422e-05 1354.39 273.12 5.02449 5.02403 -0.374869 -0.543909 1.429e+06 
135 -0.03655 8.8342e-05 1354.39 273.119 5.02445 5.0239 -0.379813 -0.571753 1.42895e+06 
136 -0.03645 8.83418e-05 1354.39 273.12 5.02446 5.02391 -0.40456 -0.60316 1.42897e+06 
137 -0.03635 8.83425e-05 1354.39 273.122 5.02453 5.02402 -0.371684 -0.564429 1.42899e+06 
138 -0.03625 8.83428e-05 1354.39 273.122 5.02455 5.02416 -0.375896 -0.55414 1.42907e+06 
139 -0.03615 8.83421e-05 1354.39 273.121 5.0245 5.0241 -0.372191 -0.532227 1.42903e+06 
140 -0.03605 8.83428e-05 1354.39 273.12 5.02451 5.0241 -0.35616 -0.525947 1.42901e+06 
141 -0.03595 8.83426e-05 1354.39 273.121 5.02453 5.02409 -0.360355 -0.500461 1.42901e+06 
142 -0.03585 8.83424e-05 1354.39 273.122 5.02453 5.02407 -0.373671 -0.539321 1.42906e+06 
143 -0.03575 8.83422e-05 1354.39 273.12 5.02449 5.02408 -0.383784 -0.562997 1.42904e+06 
144 -0.03565 8.83428e-05 1354.39 273.122 5.02455 5.02413 -0.373967 -0.528766 1.42904e+06 
145 -0.03555 8.83417e-05 1354.39 273.119 5.02444 5.02404 -0.376094 -0.544152 1.429e+06 
146 -0.03545 8.83431e-05 1354.39 273.122 5.02458 5.02416 -0.378571 -0.528555 1.42909e+06 
147 -0.03535 8.83424e-05 1354.39 273.121 5.02451 5.02406 -0.358562 -0.518009 1.42903e+06 
148 -0.03525 8.8342e-05 1354.39 273.121 5.02449 5.024 -0.331119 -0.458911 1.429e+06 
149 -0.03515 8.83426e-05 1354.39 273.119 5.02448 5.02397 -0.331027 -0.46836 1.429e+06 
150 -0.03505 8.83415e-05 1354.39 273.12 5.02444 5.02396 -0.350083 -0.48481 1.42898e+06 
126 -0.03745 8.83423e-05 1354.39 273.12 5.02448 5.024 -0.31715 -0.504667 1.42877e+06 
127 -0.03735 8.8342e-05 1354.39 273.117 5.02442 5.02388 -0.311751 -0.474272 1.42878e+06 
128 -0.03725 8.8342e-05 1354.39 273.118 5.02444 5.02382 -0.316303 -0.494849 1.42872e+06 
167 -0.03335 8.83428e-05 1354.39 273.121 5.02454 5.02404 -0.410983 -0.562862 1.42933e+06 
161 -0.03395 8.83423e-05 1354.39 273.121 5.02451 5.02404 -0.381387 -0.531576 1.42923e+06 
162 -0.03385 8.83427e-05 1354.39 273.12 5.02451 5.02406 -0.359464 -0.524257 1.42925e+06 
163 -0.03375 8.83418e-05 1354.39 273.122 5.0245 5.02401 -0.391429 -0.551568 1.42929e+06 
164 -0.03365 8.83424e-05 1354.39 273.122 5.02453 5.02403 -0.417436 -0.578759 1.42935e+06 
165 -0.03355 8.83425e-05 1354.39 273.124 5.02457 5.0241 -0.417926 -0.552002 1.42941e+06 
166 -0.03345 8.83423e-05 1354.39 273.119 5.02448 5.02393 -0.416466 -0.549942 1.42928e+06 
168 -0.03325 8.8343e-05 1354.39 273.123 5.02458 5.02424 -0.419919 -0.592027 1.42946e+06 
169 -0.03315 8.83427e-05 1354.39 273.124 5.02458 5.02415 -0.437101 -0.629233 1.42949e+06 
170 -0.03305 8.83425e-05 1354.39 273.122 5.02455 5.02418 -0.397138 -0.560331 1.42947e+06 
171 -0.03295 8.83429e-05 1354.39 273.121 5.02455 5.02408 -0.417756 -0.615714 1.42942e+06 
172 -0.03285 8.83422e-05 1354.39 273.123 5.02454 5.02408 -0.416791 -0.617347 1.42951e+06 
173 -0.03275 8.83428e-05 1354.39 273.12 5.02453 5.02407 -0.406775 -0.602958 1.42951e+06 
174 -0.03265 8.83428e-05 1354.39 273.123 5.02458 5.0242 -0.420105 -0.615874 1.4296e+06 
175 -0.03255 8.83425e-05 1354.39 273.122 5.02455 5.02415 -0.491864 -0.717874 1.42962e+06 
151 -0.03495 8.83424e-05 1354.39 273.12 5.0245 5.02399 -0.341409 -0.500344 1.42904e+06 
152 -0.03485 8.83424e-05 1354.39 273.121 5.02451 5.02403 -0.338884 -0.510963 1.42906e+06 
153 -0.03475 8.83418e-05 1354.39 273.118 5.02442 5.02384 -0.322887 -0.490394 1.42897e+06 
154 -0.03465 8.83423e-05 1354.39 273.122 5.02453 5.02402 -0.323309 -0.488586 1.42909e+06 
155 -0.03455 8.83426e-05 1354.39 273.119 5.02449 5.02404 -0.366747 -0.567886 1.42909e+06 
156 -0.03445 8.83416e-05 1354.39 273.12 5.02444 5.02409 -0.377452 -0.61248 1.42922e+06 
157 -0.03435 8.83424e-05 1354.39 273.123 5.02454 5.02412 -0.382826 -0.592199 1.42919e+06 
158 -0.03425 8.83426e-05 1354.39 273.121 5.02453 5.02416 -0.387559 -0.613117 1.42924e+06 
159 -0.03415 8.83421e-05 1354.39 273.12 5.02449 5.02406 -0.351871 -0.543009 1.42918e+06 
160 -0.03405 8.83425e-05 1354.39 273.123 5.02456 5.02401 -0.372538 -0.529332 1.42925e+06 
200 -0.03005 8.83431e-05 1354.38 273.135 5.02481 5.02461 -0.807785 -1.18608 1.43135e+06 
193 -0.03075 8.83428e-05 1354.39 273.126 5.02463 5.02448 -0.593421 -0.853689 1.43059e+06 
194 -0.03065 8.83431e-05 1354.38 273.129 5.0247 5.02451 -0.641214 -0.961514 1.43071e+06 
195 -0.03055 8.83424e-05 1354.38 273.131 5.0247 5.02459 -0.670088 -1.00345 1.43084e+06 
196 -0.03045 8.83428e-05 1354.38 273.131 5.02473 5.02457 -0.724425 -1.08132 1.43093e+06 
197 -0.03035 8.83429e-05 1354.39 273.131 5.02473 5.02459 -0.712611 -1.08117 1.43095e+06 
198 -0.03025 8.83425e-05 1354.38 273.132 5.02473 5.02459 -0.731388 -1.11744 1.43108e+06 
199 -0.03015 8.83423e-05 1354.38 273.131 5.0247 5.02452 -0.758438 -1.10729 1.43116e+06 
176 -0.03245 8.83433e-05 1354.39 273.126 5.02466 5.02438 -0.465415 -0.705724 1.42982e+06 
177 -0.03235 8.83426e-05 1354.38 273.123 5.02456 5.02419 -0.501968 -0.777607 1.42974e+06 
178 -0.03225 8.83433e-05 1354.39 273.126 5.02466 5.02431 -0.498004 -0.742436 1.42985e+06 
179 -0.03215 8.83422e-05 1354.39 273.126 5.0246 5.02425 -0.494466 -0.771193 1.42978e+06 
180 -0.03205 8.83428e-05 1354.39 273.123 5.02458 5.02418 -0.470768 -0.724285 1.42974e+06 
181 -0.03195 8.8343e-05 1354.39 273.124 5.02461 5.02422 -0.498308 -0.765937 1.42982e+06 
182 -0.03185 8.83427e-05 1354.39 273.124 5.02458 5.02427 -0.519855 -0.825546 1.42988e+06 
183 -0.03175 8.83424e-05 1354.39 273.126 5.02461 5.02436 -0.510423 -0.779959 1.43008e+06 
184 -0.03165 8.83424e-05 1354.38 273.125 5.02458 5.02436 -0.541029 -0.886465 1.43002e+06 
185 -0.03155 8.83428e-05 1354.39 273.127 5.02465 5.0245 -0.518956 -0.869972 1.43012e+06 
186 -0.03145 8.83429e-05 1354.39 273.127 5.02464 5.02449 -0.520899 -0.862972 1.43024e+06 
187 -0.03135 8.83421e-05 1354.38 273.125 5.02457 5.02439 -0.530763 -0.871238 1.43025e+06 
188 -0.03125 8.83425e-05 1354.38 273.127 5.02463 5.02449 -0.543742 -0.908759 1.43036e+06 
189 -0.03115 8.83427e-05 1354.38 273.124 5.02459 5.02445 -0.519439 -0.87629 1.43032e+06 
190 -0.03105 8.8343e-05 1354.39 273.126 5.02464 5.02449 -0.585702 -0.869487 1.4305e+06 
191 -0.03095 8.83421e-05 1354.39 273.13 5.02465 5.02437 -0.591099 -0.899342 1.4305e+06 
192 -0.03085 8.83426e-05 1354.38 273.127 5.02464 5.02442 -0.582335 -0.85986 1.43054e+06 
201 -0.02995 8.83426e-05 1354.38 273.134 5.02476 5.02461 -0.792477 -1.1574 1.43139e+06 
225 -0.02755 8.8344e-05 1354.38 273.155 5.02523 5.02553 -1.58751 -2.43945 1.43493e+06 
202 -0.02985 8.83423e-05 1354.38 273.134 5.02474 5.02453 -0.795417 -1.13614 1.43139e+06 
203 -0.02975 8.83428e-05 1354.39 273.134 5.02477 5.02463 -0.79185 -1.13401 1.43149e+06 
204 -0.02965 8.83425e-05 1354.38 273.132 5.02473 5.02452 -0.826831 -1.20455 1.43158e+06 
205 -0.02955 8.83421e-05 1354.38 273.135 5.02476 5.02464 -0.823882 -1.20841 1.43168e+06 
206 -0.02945 8.83425e-05 1354.38 273.135 5.02477 5.02471 -0.84143 -1.26144 1.4317e+06 
207 -0.02935 8.83433e-05 1354.38 273.136 5.02483 5.02479 -0.887086 -1.33685 1.43193e+06 
208 -0.02925 8.8342e-05 1354.38 273.137 5.02478 5.02483 -0.952235 -1.42125 1.43212e+06 
209 -0.02915 8.83426e-05 1354.38 273.138 5.02485 5.02491 -0.97546 -1.46372 1.4323e+06 
210 -0.02905 8.83431e-05 1354.38 273.137 5.02485 5.02494 -0.944071 -1.42297 1.43228e+06 
211 -0.02895 8.8343e-05 1354.38 273.138 5.02486 5.02485 -0.940751 -1.42801 1.4323e+06 
212 -0.02885 8.83426e-05 1354.38 273.138 5.02484 5.02479 -0.930093 -1.38428 1.43236e+06 
213 -0.02875 8.83429e-05 1354.38 273.136 5.02482 5.02473 -1.00394 -1.46014 1.43254e+06 
214 -0.02865 8.83423e-05 1354.38 273.141 5.02489 5.02487 -1.04407 -1.50669 1.4328e+06 
215 -0.02855 8.83429e-05 1354.38 273.14 5.0249 5.0248 -1.11574 -1.60973 1.4329e+06 
216 -0.02845 8.83428e-05 1354.38 273.144 5.02496 5.0249 -1.13621 -1.62721 1.43312e+06 
217 -0.02835 8.8343e-05 1354.38 273.142 5.02494 5.02493 -1.11195 -1.64157 1.43318e+06 
218 -0.02825 8.83427e-05 1354.38 273.145 5.02498 5.02498 -1.20055 -1.77326 1.4334e+06 
219 -0.02815 8.83427e-05 1354.38 273.145 5.02497 5.02513 -1.24931 -1.88679 1.43365e+06 
220 -0.02805 8.83434e-05 1354.38 273.149 5.02508 5.02521 -1.33661 -1.98493 1.43395e+06 
221 -0.02795 8.83432e-05 1354.38 273.148 5.02507 5.0252 -1.37224 -2.07275 1.43405e+06 
222 -0.02785 8.83429e-05 1354.38 273.152 5.02511 5.02542 -1.40288 -2.1636 1.43432e+06 
223 -0.02775 8.8343e-05 1354.38 273.152 5.02511 5.0254 -1.51728 -2.32695 1.4345e+06 
224 -0.02765 8.83439e-05 1354.38 273.155 5.02522 5.0256 -1.51837 -2.33988 1.43472e+06 
234 -0.02665 8.83444e-05 1354.37 273.168 5.02549 5.02617 -2.07537 -3.12521 1.43722e+06 
226 -0.02745 8.83437e-05 1354.38 273.156 5.02523 5.02559 -1.59462 -2.43565 1.43499e+06 
227 -0.02735 8.83439e-05 1354.38 273.158 5.02528 5.02572 -1.63985 -2.514 1.43534e+06 
228 -0.02725 8.83437e-05 1354.37 273.157 5.02524 5.02573 -1.67866 -2.586 1.43546e+06 
229 -0.02715 8.83441e-05 1354.37 273.161 5.02535 5.02579 -1.74626 -2.66586 1.43569e+06 
230 -0.02705 8.83445e-05 1354.37 273.16 5.02535 5.02581 -1.79054 -2.71187 1.43593e+06 
231 -0.02695 8.83428e-05 1354.37 273.162 5.0253 5.02577 -1.86658 -2.84192 1.43609e+06 
232 -0.02685 8.83445e-05 1354.37 273.166 5.02547 5.02602 -1.9457 -2.94519 1.43661e+06 
233 -0.02675 8.83438e-05 1354.37 273.166 5.02542 5.02601 -1.99022 -3.04082 1.43676e+06 
235 -0.02655 8.83433e-05 1354.37 273.17 5.02546 5.02614 -2.11485 -3.19718 1.43737e+06 
236 -0.02645 8.83446e-05 1354.37 273.174 5.0256 5.02635 -2.22171 -3.37436 1.43783e+06 
237 -0.02635 8.8344e-05 1354.37 273.177 5.02564 5.02647 -2.40546 -3.63778 1.43838e+06 
238 -0.02625 8.83443e-05 1354.37 273.178 5.02568 5.02664 -2.42777 -3.69129 1.43865e+06 
239 -0.02615 8.83445e-05 1354.36 273.185 5.02581 5.02693 -2.5575 -3.84459 1.43917e+06 
240 -0.02605 8.83441e-05 1354.36 273.184 5.02578 5.02685 -2.59806 -3.93522 1.43943e+06 
241 -0.02595 8.83448e-05 1354.36 273.184 5.02581 5.02698 -2.66929 -4.05795 1.43973e+06 
242 -0.02585 8.83437e-05 1354.36 273.19 5.02585 5.02698 -2.78167 -4.18668 1.44023e+06 
243 -0.02575 8.83448e-05 1354.36 273.19 5.02592 5.02708 -2.84577 -4.23596 1.44052e+06 
244 -0.02565 8.83448e-05 1354.36 273.195 5.026 5.02711 -2.91093 -4.38282 1.4408e+06 
245 -0.02555 8.83441e-05 1354.36 273.197 5.02601 5.02721 -3.01151 -4.53761 1.44124e+06 
246 -0.02545 8.83448e-05 1354.36 273.2 5.02611 5.0273 -3.17932 -4.73913 1.44179e+06 
247 -0.02535 8.83437e-05 1354.36 273.203 5.02609 5.02721 -3.23094 -4.83667 1.442e+06 
248 -0.02525 8.83455e-05 1354.36 273.208 5.02629 5.02764 -3.39529 -5.06575 1.44273e+06 
249 -0.02515 8.83442e-05 1354.36 273.21 5.02625 5.02756 -3.45908 -5.19752 1.44308e+06 
250 -0.02505 8.8345e-05 1354.36 273.213 5.02635 5.02773 -3.64671 -5.44694 1.44387e+06 
267 -0.02335 8.83461e-05 1354.34 273.295 5.02792 5.03051 -6.51914 -9.70417 1.45652e+06 
257 -0.02435 8.83456e-05 1354.35 273.241 5.0269 5.02879 -4.64563 -6.85263 1.44818e+06 
258 -0.02425 8.8345e-05 1354.35 273.245 5.02695 5.02891 -4.72962 -7.04205 1.44871e+06 
259 -0.02415 8.83454e-05 1354.35 273.248 5.02701 5.02896 -4.88539 -7.25646 1.44944e+06 
260 -0.02405 8.83452e-05 1354.35 273.253 5.0271 5.02916 -5.09023 -7.56563 1.45017e+06 
261 -0.02395 8.8345e-05 1354.34 273.26 5.02722 5.02929 -5.32614 -7.89778 1.45126e+06 
262 -0.02385 8.83451e-05 1354.34 273.263 5.02728 5.02939 -5.45755 -8.08342 1.45177e+06 
263 -0.02375 8.83457e-05 1354.34 273.27 5.02744 5.02963 -5.65665 -8.35889 1.45268e+06 
264 -0.02365 8.83453e-05 1354.34 273.275 5.02752 5.0298 -5.88863 -8.70959 1.45366e+06 
265 -0.02355 8.83458e-05 1354.34 273.282 5.02767 5.03005 -6.10004 -9.03305 1.45456e+06 
266 -0.02345 8.83449e-05 1354.34 273.287 5.0277 5.03016 -6.27884 -9.39329 1.45544e+06 
268 -0.02325 8.83456e-05 1354.33 273.299 5.02798 5.03058 -6.77294 -10.0529 1.45746e+06 
269 -0.02315 8.8346e-05 1354.33 273.307 5.02814 5.03077 -6.98534 -10.3713 1.45849e+06 
270 -0.02305 8.83461e-05 1354.33 273.314 5.02828 5.03111 -7.26683 -10.7552 1.45964e+06 
271 -0.02295 8.83459e-05 1354.33 273.324 5.02845 5.03137 -7.63391 -11.357 1.46108e+06 
272 -0.02285 8.83461e-05 1354.33 273.332 5.02861 5.03167 -7.83548 -11.6733 1.46212e+06 
273 -0.02275 8.83466e-05 1354.32 273.335 5.02869 5.03187 -8.03586 -11.9868 1.46298e+06 
274 -0.02265 8.83458e-05 1354.32 273.346 5.02885 5.03207 -8.36488 -12.4753 1.46432e+06 
275 -0.02255 8.83468e-05 1354.32 273.352 5.02901 5.03248 -8.66126 -12.8825 1.46561e+06 
251 -0.02495 8.83451e-05 1354.36 273.217 5.02644 5.02789 -3.75609 -5.58964 1.44432e+06 
252 -0.02485 8.83446e-05 1354.35 273.225 5.02656 5.02806 -3.99587 -5.91477 1.44524e+06 
253 -0.02475 8.83452e-05 1354.35 273.229 5.02666 5.02825 -4.15762 -6.07773 1.44588e+06 
254 -0.02465 8.83453e-05 1354.35 273.23 5.02669 5.02828 -4.23859 -6.22902 1.44629e+06 
255 -0.02455 8.83448e-05 1354.35 273.233 5.02671 5.02847 -4.26272 -6.36162 1.44664e+06 
256 -0.02445 8.83452e-05 1354.35 273.233 5.02673 5.02847 -4.36013 -6.54505 1.44715e+06 
300 -0.02005 8.83529e-05 1354.21 273.732 5.03636 5.04479 -22.2991 -32.9448 1.52273e+06 
289 -0.02115 8.83495e-05 1354.27 273.522 5.03229 5.03801 -14.684 -21.7542 1.49069e+06 
290 -0.02105 8.83502e-05 1354.27 273.54 5.03267 5.03862 -15.353 -22.6711 1.49348e+06 
291 -0.02095 8.83498e-05 1354.26 273.554 5.03291 5.0391 -15.9023 -23.549 1.49577e+06 
292 -0.02085 8.83503e-05 1354.26 273.572 5.03326 5.03959 -16.4858 -24.3292 1.49829e+06 
293 -0.02075 8.83503e-05 1354.25 273.585 5.0335 5.04011 -17.0548 -25.2691 1.50072e+06 
294 -0.02065 8.83511e-05 1354.25 273.607 5.03395 5.04087 -17.7117 -26.2293 1.50356e+06 
295 -0.02055 8.83516e-05 1354.24 273.628 5.03437 5.04142 -18.5373 -27.3126 1.50678e+06 
296 -0.02045 8.83517e-05 1354.24 273.645 5.03468 5.04202 -19.2088 -28.407 1.50959e+06 
297 -0.02035 8.83525e-05 1354.23 273.664 5.03508 5.04265 -19.7493 -29.2307 1.51221e+06 
298 -0.02025 8.83521e-05 1354.23 273.686 5.03546 5.04335 -20.6676 -30.587 1.5157e+06 
299 -0.02015 8.83533e-05 1354.22 273.713 5.03602 5.0443 -21.5251 -31.8156 1.51944e+06 
276 -0.02245 8.83461e-05 1354.32 273.365 5.02921 5.03268 -9.04099 -13.3872 1.46707e+06 
277 -0.02235 8.83472e-05 1354.32 273.371 5.02938 5.03301 -9.31014 -13.8566 1.46829e+06 
278 -0.02225 8.83471e-05 1354.31 273.379 5.02953 5.03327 -9.5856 -14.2856 1.46957e+06 
279 -0.02215 8.83474e-05 1354.31 273.39 5.02974 5.03367 -9.97126 -14.8761 1.47121e+06 
280 -0.02205 8.83475e-05 1354.3 273.405 5.03002 5.03422 -10.5056 -15.6041 1.47335e+06 
281 -0.02195 8.83469e-05 1354.3 273.414 5.03016 5.03446 -10.8999 -16.2119 1.47483e+06 
282 -0.02185 8.83482e-05 1354.3 273.43 5.03052 5.03503 -11.3126 -16.7996 1.47673e+06 
283 -0.02175 8.8348e-05 1354.29 273.442 5.03073 5.03538 -11.8686 -17.6042 1.47893e+06 
284 -0.02165 8.83485e-05 1354.29 273.45 5.03092 5.03575 -12.0856 -17.9703 1.48012e+06 
285 -0.02155 8.83483e-05 1354.29 273.46 5.03109 5.03602 -12.5282 -18.609 1.4819e+06 
286 -0.02145 8.83488e-05 1354.28 273.483 5.03154 5.03681 -13.2688 -19.6117 1.48481e+06 
287 -0.02135 8.83486e-05 1354.28 273.493 5.0317 5.03712 -13.6762 -20.2537 1.48651e+06 
288 -0.02125 8.83497e-05 1354.27 273.512 5.03213 5.03783 -14.3318 -21.1665 1.48917e+06 
301 -0.01995 8.8354e-05 1354.21 273.759 5.03692 5.04575 -23.2509 -34.3943 1.52669e+06 
321 -0.01795 8.83673e-05 1354 274.497 5.05125 5.07046 -49.6946 -73.8031 1.6368e+06 
322 -0.01785 8.83676e-05 1353.98 274.556 5.05235 5.07227 -51.7994 -76.7089 1.64537e+06 
323 -0.01775 8.8369e-05 1353.97 274.613 5.05349 5.07432 -53.9844 -79.9372 1.65432e+06 
324 -0.01765 8.83702e-05 1353.95 274.678 5.05474 5.07652 -56.207 -83.3057 1.6635e+06 
325 -0.01755 8.83718e-05 1353.93 274.735 5.05589 5.07851 -58.2421 -86.4424 1.6722e+06 
302 -0.01985 8.83533e-05 1354.2 273.785 5.03736 5.04649 -24.1707 -35.6555 1.53043e+06 
303 -0.01975 8.83547e-05 1354.19 273.811 5.03791 5.04744 -25.0974 -37.1109 1.53432e+06 
304 -0.01965 8.83546e-05 1354.19 273.842 5.03847 5.04851 -26.1992 -38.7774 1.53881e+06 
305 -0.01955 8.8356e-05 1354.17 273.866 5.039 5.04939 -27.0966 -40.1009 1.54268e+06 
306 -0.01945 8.83561e-05 1354.17 273.895 5.03953 5.05036 -28.0824 -41.6285 1.54689e+06 
307 -0.01935 8.83565e-05 1354.16 273.919 5.04 5.05112 -29.0132 -43.0502 1.5509e+06 
308 -0.01925 8.83564e-05 1354.15 273.95 5.04056 5.05215 -30.1131 -44.7093 1.55555e+06 
309 -0.01915 8.83578e-05 1354.14 273.982 5.04124 5.05322 -31.2276 -46.3722 1.56024e+06 
310 -0.01905 8.83577e-05 1354.13 274.019 5.0419 5.0544 -32.6235 -48.4625 1.56582e+06 
311 -0.01895 8.83598e-05 1354.13 274.055 5.04268 5.05576 -33.8501 -50.2794 1.57101e+06 
312 -0.01885 8.83595e-05 1354.11 274.091 5.04334 5.05694 -35.1102 -52.2746 1.57633e+06 
313 -0.01875 8.83601e-05 1354.1 274.132 5.04412 5.05824 -36.6548 -54.4754 1.58251e+06 
314 -0.01865 8.83612e-05 1354.09 274.177 5.04501 5.05965 -38.3216 -56.8 1.5893e+06 
315 -0.01855 8.83615e-05 1354.08 274.215 5.04573 5.06097 -39.6067 -58.7611 1.5949e+06 
316 -0.01845 8.83623e-05 1354.07 274.258 5.04656 5.06224 -41.1206 -60.941 1.60119e+06 
317 -0.01835 8.83633e-05 1354.06 274.301 5.04742 5.06381 -42.7316 -63.3241 1.60783e+06 
318 -0.01825 8.83646e-05 1354.04 274.355 5.04847 5.06561 -44.6169 -66.005 1.61541e+06 
319 -0.01815 8.83648e-05 1354.03 274.406 5.04943 5.06723 -46.401 -68.5987 1.62276e+06 
320 -0.01805 8.83658e-05 1354.02 274.446 5.05022 5.06873 -48.0052 -71.2101 1.62973e+06 
334 -0.01665 8.83842e-05 1353.74 275.437 5.06952 5.10175 -83.4387 -123.622 1.77595e+06 
326 -0.01745 8.83724e-05 1353.92 274.797 5.05706 5.08059 -60.4622 -89.7389 1.68159e+06 
327 -0.01735 8.83735e-05 1353.9 274.858 5.05826 5.08252 -62.745 -93.1492 1.69099e+06 
328 -0.01725 8.83753e-05 1353.88 274.942 5.0599 5.08543 -65.6205 -97.4025 1.70274e+06 
329 -0.01715 8.83768e-05 1353.85 275.016 5.06135 5.08793 -68.4132 -101.403 1.71396e+06 
330 -0.01705 8.83787e-05 1353.83 275.094 5.0629 5.09044 -71.0627 -105.345 1.72503e+06 
331 -0.01695 8.83789e-05 1353.81 275.173 5.06435 5.09304 -73.9639 -109.699 1.73707e+06 
332 -0.01685 8.83814e-05 1353.79 275.258 5.06606 5.0959 -77.049 -114.18 1.74929e+06 
333 -0.01675 8.8383e-05 1353.76 275.353 5.0679 5.09899 -80.4028 -119.066 1.76327e+06 
335 -0.01655 8.83861e-05 1353.71 275.529 5.07133 5.10492 -86.6769 -128.632 1.78943e+06 
336 -0.01645 8.83881e-05 1353.69 275.629 5.07327 5.10821 -90.2822 -133.97 1.80428e+06 
337 -0.01635 8.83894e-05 1353.66 275.722 5.07507 5.11139 -93.6092 -139.024 1.81832e+06 
338 -0.01625 8.83917e-05 1353.63 275.82 5.077 5.11473 -97.252 -144.52 1.83345e+06 