ITEM: TIMESTEP
10000
ITEM: NUMBER OF CELLS
800
ITEM: BOX BOUNDS os pp pp
-0.05 0.03
-0.001 0.001
-0.001 0.001
ITEM: CELLS id f_1[1] f_1[2] f_1[3] f_1[4] f_1[5] f_1[6] f_1[7] f_1[8] f_1[9] 
1 -0.04995 8.83414e-05 1354.41 273.11 5.02426 5.0227 -0.103965 -0.12838 1.42642e+06 
2 -0.04985 8.83414e-05 1354.41 273.11 5.02425 5.02277 -0.137834 -0.149703 1.42653e+06 
3 -0.04975 8.83405e-05 1354.41 273.112 5.02424 5.02278 -0.192084 -0.261989 1.42663e+06 
4 -0.04965 8.83414e-05 1354.4 273.114 5.02433 5.02296 -0.206726 -0.297761 1.4268e+06 
5 -0.04955 8.83413e-05 1354.4 273.111 5.02427 5.02296 -0.214217 -0.324312 1.42685e+06 
6 -0.04945 8.83419e-05 1354.41 273.115 5.02437 5.02303 -0.208684 -0.337851 1.42691e+06 
7 -0.04935 8.83409e-05 1354.4 273.114 5.02429 5.02298 -0.221468 -0.366255 1.42695e+06 
8 -0.04925 8.83414e-05 1354.4 273.115 5.02434 5.02316 -0.236995 -0.382751 1.42709e+06 
9 -0.04915 8.83414e-05 1354.4 273.114 5.02433 5.02306 -0.254522 -0.427723 1.42709e+06 
10 -0.04905 8.83417e-05 1354.4 273.116 5.02438 5.02313 -0.276528 -0.428486 1.42717e+06 
11 -0.04895 8.83409e-05 1354.4 273.114 5.0243 5.02302 -0.275095 -0.429194 1.42714e+06 
12 -0.04885 8.83417e-05 1354.4 273.114 5.02434 5.02304 -0.280447 -0.466814 1.42717e+06 
13 -0.04875 8.83409e-05 1354.4 273.115 5.02432 5.02311 -0.299608 -0.521606 1.42725e+06 
14 -0.04865 8.83413e-05 1354.4 273.114 5.02433 5.0231 -0.278198 -0.51004 1.42727e+06 
15 -0.04855 8.83408e-05 1354.4 273.114 5.0243 5.02311 -0.298973 -0.561633 1.42734e+06 
16 -0.04845 8.83412e-05 1354.4 273.115 5.02434 5.02323 -0.3006 -0.590163 1.42744e+06 
17 -0.04835 8.83419e-05 1354.4 273.116 5.02439 5.0233 -0.343662 -0.63547 1.42754e+06 
18 -0.04825 8.83415e-05 1354.4 273.116 5.02437 5.02321 -0.309958 -0.548238 1.42747e+06 
19 -0.04815 8.83414e-05 1354.4 273.115 5.02435 5.02318 -0.308945 -0.531019 1.42745e+06 
20 -0.04805 8.83412e-05 1354.4 273.116 5.02435 5.02321 -0.298477 -0.547639 1.42745e+06 
21 -0.04795 8.83421e-05 1354.4 273.115 5.02438 5.02327 -0.326226 -0.596584 1.42751e+06 
22 -0.04785 8.83402e-05 1354.4 273.117 5.02432 5.02326 -0.339662 -0.62701 1.42756e+06 
23 -0.04775 8.83421e-05 1354.4 273.115 5.02439 5.02335 -0.327657 -0.586315 1.42758e+06 
24 -0.04765 8.8341e-05 1354.4 273.116 5.02435 5.02331 -0.315328 -0.54383 1.42757e+06 
25 -0.04755 8.83422e-05 1354.4 273.113 5.02436 5.02333 -0.31914 -0.530337 1.42759e+06 
34 -0.04665 8.83419e-05 1354.4 273.12 5.02448 5.02392 -0.388776 -0.608162 1.42803e+06 
33 -0.04675 8.83421e-05 1354.4 273.118 5.02444 5.02383 -0.381482 -0.576086 1.42798e+06 
35 -0.04655 8.83417e-05 1354.4 273.119 5.02443 5.02388 -0.352539 -0.535051 1.42797e+06 
36 -0.04645 8.83419e-05 1354.4 273.116 5.02439 5.02387 -0.348657 -0.548589 1.42796e+06 
37 -0.04635 8.83417e-05 1354.4 273.121 5.02448 5.02394 -0.338153 -0.502825 1.42803e+06 
38 -0.04625 8.83424e-05 1354.4 273.119 5.02448 5.02395 -0.35325 -0.510396 1.42802e+06 
39 -0.04615 8.83413e-05 1354.4 273.117 5.02437 5.02387 -0.348546 -0.494554 1.42801e+06 
40 -0.04605 8.83431e-05 1354.4 273.117 5.02448 5.02401 -0.336146 -0.479649 1.42803e+06 
41 -0.04595 8.83414e-05 1354.4 273.12 5.02443 5.02402 -0.318698 -0.51063 1.42808e+06 
42 -0.04585 8.83425e-05 1354.39 273.119 5.02448 5.02403 -0.37443 -0.562979 1.42809e+06 
43 -0.04575 8.83418e-05 1354.39 273.119 5.02445 5.02412 -0.330974 -0.516362 1.42816e+06 
44 -0.04565 8.83418e-05 1354.39 273.118 5.02443 5.02399 -0.340242 -0.528956 1.42808e+06 
45 -0.04555 8.83425e-05 1354.39 273.121 5.02451 5.02419 -0.32145 -0.496171 1.42815e+06 
46 -0.04545 8.83418e-05 1354.4 273.118 5.02442 5.02413 -0.334629 -0.53155 1.42814e+06 
47 -0.04535 8.83418e-05 1354.39 273.12 5.02446 5.02418 -0.34169 -0.552372 1.42816e+06 
48 -0.04525 8.83426e-05 1354.39 273.117 5.02445 5.02411 -0.311339 -0.507363 1.42813e+06 
49 -0.04515 8.83418e-05 1354.39 273.118 5.02442 5.02403 -0.320009 -0.497114 1.42811e+06 
50 -0.04505 8.83419e-05 1354.4 273.118 5.02442 5.02407 -0.276463 -0.420189 1.4281e+06 
26 -0.04745 8.83412e-05 1354.4 273.116 5.02435 5.02336 -0.323787 -0.574747 1.42765e+06 
27 -0.04735 8.83419e-05 1354.4 273.118 5.02443 5.02353 -0.370405 -0.645212 1.42774e+06 
28 -0.04725 8.83415e-05 1354.4 273.117 5.0244 5.02348 -0.374816 -0.622074 1.42774e+06 
29 -0.04715 8.83414e-05 1354.4 273.117 5.02439 5.02351 -0.35342 -0.556547 1.42776e+06 
30 -0.04705 8.8342e-05 1354.4 273.119 5.02445 5.02361 -0.393997 -0.608641 1.42781e+06 
31 -0.04695 8.83415e-05 1354.4 273.12 5.02445 5.02369 -0.371231 -0.582999 1.4279e+06 
32 -0.04685 8.83413e-05 1354.4 273.118 5.0244 5.02372 -0.389758 -0.609163 1.4279e+06 
67 -0.04335 8.83421e-05 1354.39 273.12 5.02447 5.02414 -0.338383 -0.540668 1.42838e+06 
65 -0.04355 8.8341e-05 1354.39 273.118 5.02437 5.02399 -0.281767 -0.464111 1.42827e+06 
66 -0.04345 8.8342e-05 1354.39 273.118 5.02444 5.02411 -0.326566 -0.539278 1.42836e+06 
68 -0.04325 8.83417e-05 1354.4 273.119 5.02443 5.02407 -0.305071 -0.504864 1.42837e+06 
69 -0.04315 8.83423e-05 1354.39 273.12 5.02449 5.02414 -0.337459 -0.556428 1.42838e+06 
70 -0.04305 8.83417e-05 1354.39 273.118 5.02441 5.02415 -0.343283 -0.576378 1.42842e+06 
71 -0.04295 8.83423e-05 1354.39 273.121 5.02451 5.02422 -0.33257 -0.559918 1.42845e+06 
72 -0.04285 8.83418e-05 1354.39 273.118 5.02442 5.02405 -0.307319 -0.538546 1.42838e+06 
73 -0.04275 8.83422e-05 1354.4 273.117 5.02444 5.02401 -0.312052 -0.546221 1.42835e+06 
74 -0.04265 8.83417e-05 1354.4 273.118 5.02442 5.02397 -0.30068 -0.469676 1.42831e+06 
75 -0.04255 8.83413e-05 1354.4 273.117 5.02437 5.02387 -0.259777 -0.426467 1.42827e+06 
51 -0.04495 8.83419e-05 1354.39 273.12 5.02447 5.02412 -0.297995 -0.482365 1.42817e+06 
52 -0.04485 8.83414e-05 1354.4 273.119 5.02442 5.02407 -0.290953 -0.50958 1.42818e+06 
53 -0.04475 8.83422e-05 1354.4 273.118 5.02445 5.02409 -0.281265 -0.475414 1.42813e+06 
54 -0.04465 8.83417e-05 1354.4 273.117 5.0244 5.02397 -0.274895 -0.469614 1.42808e+06 
55 -0.04455 8.83416e-05 1354.4 273.117 5.02439 5.02394 -0.273949 -0.479567 1.42811e+06 
56 -0.04445 8.83412e-05 1354.39 273.118 5.02439 5.02393 -0.268356 -0.466077 1.42816e+06 
57 -0.04435 8.83421e-05 1354.4 273.118 5.02445 5.02408 -0.315174 -0.55573 1.42827e+06 
58 -0.04425 8.8342e-05 1354.39 273.12 5.02447 5.02404 -0.344479 -0.600278 1.42829e+06 
59 -0.04415 8.83417e-05 1354.4 273.12 5.02445 5.02407 -0.333751 -0.555233 1.42829e+06 
60 -0.04405 8.83414e-05 1354.4 273.118 5.02441 5.02408 -0.329483 -0.535532 1.42828e+06 
61 -0.04395 8.83422e-05 1354.39 273.12 5.02449 5.02409 -0.334967 -0.594093 1.42835e+06 
62 -0.04385 8.83414e-05 1354.39 273.118 5.02441 5.02409 -0.319984 -0.554671 1.42833e+06 
63 -0.04375 8.83419e-05 1354.39 273.118 5.02444 5.02409 -0.315613 -0.513947 1.42832e+06 
64 -0.04365 8.83418e-05 1354.39 273.12 5.02446 5.02411 -0.323264 -0.538803 1.42832e+06 
100 -0.04005 8.83423e-05 1354.4 273.12 5.02449 5.02369 -0.273073 -0.310456 1.42839e+06 
97 -0.04035 8.83407e-05 1354.4 273.119 5.02438 5.02361 -0.254161 -0.283713 1.4283e+06 
98 -0.04025 8.83416e-05 1354.4 273.118 5.02441 5.0235 -0.258954 -0.262473 1.42825e+06 
99 -0.04015 8.83414e-05 1354.4 273.121 5.02446 5.02366 -0.263483 -0.295839 1.42839e+06 
76 -0.04245 8.83416e-05 1354.39 273.119 5.02444 5.02395 -0.2734 -0.446832 1.42834e+06 
77 -0.04235 8.83418e-05 1354.4 273.116 5.0244 5.02393 -0.276883 -0.456928 1.4283e+06 
78 -0.04225 8.83423e-05 1354.39 273.119 5.02447 5.02396 -0.272943 -0.487868 1.42835e+06 
79 -0.04215 8.83416e-05 1354.4 273.116 5.02438 5.02383 -0.253203 -0.447517 1.42828e+06 
80 -0.04205 8.83423e-05 1354.4 273.118 5.02446 5.02388 -0.233266 -0.436466 1.42831e+06 
81 -0.04195 8.83416e-05 1354.4 273.117 5.02439 5.02383 -0.273246 -0.498725 1.42833e+06 
82 -0.04185 8.83416e-05 1354.39 273.119 5.02443 5.02382 -0.265204 -0.485282 1.42832e+06 
83 -0.04175 8.83423e-05 1354.4 273.117 5.02443 5.02385 -0.270753 -0.479222 1.42832e+06 
84 -0.04165 8.83414e-05 1354.4 273.119 5.02443 5.02387 -0.22817 -0.417457 1.4283e+06 
85 -0.04155 8.83424e-05 1354.4 273.115 5.02441 5.02385 -0.244377 -0.456876 1.42828e+06 
86 -0.04145 8.83417e-05 1354.4 273.119 5.02444 5.0239 -0.227752 -0.422537 1.42833e+06 
87 -0.04135 8.83412e-05 1354.39 273.118 5.02438 5.02381 -0.221947 -0.393567 1.42827e+06 
88 -0.04125 8.83421e-05 1354.4 273.116 5.02441 5.02378 -0.211527 -0.364768 1.42823e+06 
89 -0.04115 8.83415e-05 1354.4 273.119 5.02442 5.02381 -0.244841 -0.382056 1.42825e+06 
90 -0.04105 8.83422e-05 1354.4 273.12 5.02448 5.02384 -0.215859 -0.338726 1.42825e+06 
91 -0.04095 8.83404e-05 1354.4 273.118 5.02435 5.02364 -0.220664 -0.325586 1.42818e+06 
92 -0.04085 8.83411e-05 1354.4 273.117 5.02436 5.02364 -0.211771 -0.281407 1.42822e+06 
93 -0.04075 8.83415e-05 1354.4 273.117 5.02438 5.02369 -0.226505 -0.272261 1.42822e+06 
94 -0.04065 8.83422e-05 1354.4 273.119 5.02447 5.02374 -0.209994 -0.23008 1.42826e+06 
95 -0.04055 8.8341e-05 1354.4 273.118 5.02438 5.02361 -0.235318 -0.266283 1.4282e+06 
96 -0.04045 8.83419e-05 1354.4 273.119 5.02445 5.02366 -0.259938 -0.28778 1.42831e+06 
101 -0.03995 8.83406e-05 1354.4 273.118 5.02435 5.02356 -0.270706 -0.320989 1.42838e+06 
102 -0.03985 8.8342e-05 1354.4 273.118 5.02443 5.02358 -0.215533 -0.24555 1.42832e+06 
103 -0.03975 8.83414e-05 1354.4 273.115 5.02435 5.02353 -0.190894 -0.206464 1.42829e+06 
104 -0.03965 8.83415e-05 1354.4 273.116 5.02437 5.02347 -0.189527 -0.232374 1.42823e+06 
105 -0.03955 8.83414e-05 1354.4 273.119 5.02441 5.02355 -0.180582 -0.216193 1.42835e+06 
106 -0.03945 8.83411e-05 1354.4 273.117 5.02436 5.02348 -0.202397 -0.278421 1.42831e+06 
107 -0.03935 8.83418e-05 1354.4 273.119 5.02444 5.02355 -0.206684 -0.286575 1.42836e+06 
108 -0.03925 8.83417e-05 1354.4 273.117 5.0244 5.0235 -0.212697 -0.308113 1.42836e+06 
109 -0.03915 8.8342e-05 1354.4 273.119 5.02446 5.02354 -0.179301 -0.216605 1.42837e+06 
110 -0.03905 8.83413e-05 1354.4 273.116 5.02436 5.02338 -0.187531 -0.213695 1.42827e+06 
111 -0.03895 8.83412e-05 1354.4 273.117 5.02437 5.02338 -0.202089 -0.211315 1.42832e+06 
112 -0.03885 8.8342e-05 1354.4 273.117 5.02441 5.02342 -0.15633 -0.181214 1.42831e+06 
113 -0.03875 8.83412e-05 1354.4 273.12 5.02442 5.02345 -0.167483 -0.184896 1.4283e+06 
114 -0.03865 8.83422e-05 1354.4 273.117 5.02442 5.02356 -0.155575 -0.194098 1.42834e+06 
115 -0.03855 8.83412e-05 1354.4 273.116 5.02436 5.02357 -0.200807 -0.273625 1.42835e+06 
116 -0.03845 8.83413e-05 1354.4 273.118 5.02439 5.02361 -0.185377 -0.240269 1.42837e+06 
117 -0.03835 8.83415e-05 1354.4 273.116 5.02437 5.02354 -0.214221 -0.274731 1.42834e+06 
118 -0.03825 8.8342e-05 1354.4 273.12 5.02448 5.02372 -0.242569 -0.284313 1.4285e+06 
119 -0.03815 8.83414e-05 1354.4 273.12 5.02444 5.0237 -0.261804 -0.334406 1.42848e+06 
120 -0.03805 8.83419e-05 1354.4 273.118 5.02444 5.02376 -0.241377 -0.289335 1.42853e+06 
121 -0.03795 8.83417e-05 1354.4 273.118 5.02442 5.02366 -0.246771 -0.278434 1.42848e+06 
122 -0.03785 8.83404e-05 1354.4 273.119 5.02436 5.02355 -0.241504 -0.276562 1.42844e+06 
123 -0.03775 8.83418e-05 1354.4 273.121 5.02448 5.02362 -0.220999 -0.244099 1.42846e+06 
124 -0.03765 8.83417e-05 1354.4 273.119 5.02444 5.02369 -0.254577 -0.304924 1.42854e+06 
125 -0.03755 8.83416e-05 1354.4 273.12 5.02445 5.02359 -0.264294 -0.317473 1.42847e+06 
134 -0.03665 8.83413e-05 1354.4 273.12 5.02444 5.02357 -0.262409 -0.39074 1.42857e+06 
129 -0.03715 8.83411e-05 1354.4 273.119 5.02441 5.02354 -0.230881 -0.325634 1.42854e+06 
130 -0.03705 8.83414e-05 1354.4 273.118 5.02439 5.02349 -0.203497 -0.290048 1.42848e+06 
131 -0.03695 8.83418e-05 1354.4 273.119 5.02444 5.02354 -0.196981 -0.258735 1.42848e+06 
132 -0.03685 8.83414e-05 1354.4 273.119 5.02442 5.02361 -0.195175 -0.269661 1.42853e+06 
133 -0.03675 8.83414e-05 1354.4 273.119 5.02441 5.02361 -0.240855 -0.339084 1.42857e+06 
135 -0.03655 8.83416e-05 1354.4 273.123 5.0245 5.02375 -0.267655 -0.375591 1.42869e+06 
136 -0.03645 8.83413e-05 1354.4 273.122 5.02447 5.02377 -0.303348 -0.432022 1.42876e+06 
137 -0.03635 8.83417e-05 1354.4 273.121 5.02448 5.02375 -0.301236 -0.428936 1.42873e+06 
138 -0.03625 8.83413e-05 1354.4 273.122 5.02448 5.02375 -0.313841 -0.434638 1.42873e+06 
139 -0.03615 8.8342e-05 1354.4 273.122 5.02451 5.02393 -0.330151 -0.457758 1.42883e+06 
140 -0.03605 8.83418e-05 1354.4 273.124 5.02453 5.02396 -0.344792 -0.53018 1.42891e+06 
141 -0.03595 8.83421e-05 1354.4 273.124 5.02455 5.02404 -0.377994 -0.56683 1.42901e+06 
142 -0.03585 8.83419e-05 1354.4 273.122 5.02451 5.02398 -0.346379 -0.512434 1.42895e+06 
143 -0.03575 8.83416e-05 1354.4 273.124 5.02453 5.02409 -0.304972 -0.460133 1.42896e+06 
144 -0.03565 8.8342e-05 1354.39 273.122 5.0245 5.02406 -0.326516 -0.480515 1.42898e+06 
145 -0.03555 8.83424e-05 1354.39 273.124 5.02456 5.02419 -0.28483 -0.431992 1.42901e+06 
146 -0.03545 8.83415e-05 1354.4 273.122 5.02448 5.02407 -0.298927 -0.474884 1.42896e+06 
147 -0.03535 8.83418e-05 1354.39 273.122 5.0245 5.02409 -0.279968 -0.444858 1.42897e+06 
148 -0.03525 8.83418e-05 1354.4 273.122 5.0245 5.02402 -0.295302 -0.439672 1.429e+06 
149 -0.03515 8.83417e-05 1354.39 273.122 5.02449 5.02402 -0.304794 -0.44118 1.42903e+06 
150 -0.03505 8.83418e-05 1354.4 273.122 5.0245 5.02405 -0.272733 -0.397629 1.42902e+06 
126 -0.03745 8.83412e-05 1354.4 273.12 5.02443 5.02357 -0.246108 -0.314308 1.42852e+06 
127 -0.03735 8.83418e-05 1354.4 273.121 5.02448 5.02361 -0.266366 -0.358027 1.42857e+06 
128 -0.03725 8.83417e-05 1354.4 273.119 5.02445 5.02364 -0.265257 -0.365799 1.42854e+06 
167 -0.03335 8.83418e-05 1354.4 273.128 5.02461 5.02435 -0.389566 -0.554899 1.42951e+06 
161 -0.03395 8.83418e-05 1354.39 273.125 5.02455 5.02422 -0.341877 -0.513814 1.42931e+06 
162 -0.03385 8.83418e-05 1354.39 273.125 5.02455 5.02423 -0.370017 -0.518208 1.42938e+06 
163 -0.03375 8.83417e-05 1354.39 273.126 5.02457 5.02425 -0.41731 -0.587957 1.42944e+06 
164 -0.03365 8.8342e-05 1354.39 273.126 5.02459 5.02434 -0.401757 -0.571468 1.42948e+06 
165 -0.03355 8.83418e-05 1354.4 273.126 5.02457 5.02429 -0.414577 -0.606068 1.42952e+06 
166 -0.03345 8.83416e-05 1354.39 273.126 5.02456 5.02424 -0.403089 -0.583127 1.42948e+06 
168 -0.03325 8.83421e-05 1354.39 273.125 5.02457 5.02427 -0.421994 -0.587967 1.42946e+06 
169 -0.03315 8.83419e-05 1354.39 273.127 5.02459 5.02432 -0.398656 -0.543767 1.42947e+06 
170 -0.03305 8.83414e-05 1354.39 273.127 5.02456 5.02427 -0.42002 -0.560049 1.42948e+06 
171 -0.03295 8.83426e-05 1354.39 273.128 5.02465 5.02438 -0.407342 -0.524206 1.42953e+06 
172 -0.03285 8.83423e-05 1354.4 273.127 5.02462 5.02434 -0.412534 -0.530374 1.42955e+06 
173 -0.03275 8.83412e-05 1354.39 273.127 5.02455 5.02436 -0.428818 -0.572655 1.42956e+06 
174 -0.03265 8.83423e-05 1354.39 273.129 5.02466 5.0244 -0.457146 -0.594804 1.42967e+06 
175 -0.03255 8.83417e-05 1354.4 273.127 5.02459 5.02431 -0.447924 -0.606624 1.42965e+06 
151 -0.03495 8.8342e-05 1354.39 273.123 5.02453 5.02409 -0.315942 -0.454382 1.42907e+06 
152 -0.03485 8.83416e-05 1354.4 273.122 5.02449 5.02413 -0.317099 -0.499343 1.42912e+06 
153 -0.03475 8.83423e-05 1354.4 273.125 5.02459 5.02424 -0.337883 -0.508135 1.42921e+06 
154 -0.03465 8.83417e-05 1354.39 273.122 5.0245 5.02409 -0.340884 -0.525046 1.42915e+06 
155 -0.03455 8.83418e-05 1354.39 273.127 5.02458 5.02431 -0.330022 -0.510221 1.42925e+06 
156 -0.03445 8.83419e-05 1354.39 273.123 5.02453 5.02418 -0.356852 -0.563027 1.42922e+06 
157 -0.03435 8.83413e-05 1354.4 273.127 5.02456 5.02426 -0.321422 -0.49531 1.42926e+06 
158 -0.03425 8.8341e-05 1354.4 273.122 5.02445 5.02405 -0.358056 -0.563792 1.42918e+06 
159 -0.03415 8.83422e-05 1354.39 273.126 5.0246 5.02422 -0.318872 -0.465422 1.42926e+06 
160 -0.03405 8.83415e-05 1354.4 273.122 5.02448 5.02413 -0.33008 -0.483802 1.42922e+06 
200 -0.03005 8.83419e-05 1354.39 273.136 5.02475 5.02457 -0.714267 -0.923036 1.43096e+06 
193 -0.03075 8.83416e-05 1354.39 273.132 5.02468 5.02437 -0.483548 -0.581074 1.43021e+06 
194 -0.03065 8.83418e-05 1354.39 273.128 5.02461 5.02435 -0.562807 -0.708188 1.43031e+06 
195 -0.03055 8.83421e-05 1354.39 273.134 5.02473 5.02451 -0.598712 -0.748181 1.43057e+06 
196 -0.03045 8.83418e-05 1354.39 273.133 5.0247 5.02443 -0.627263 -0.809253 1.43066e+06 
197 -0.03035 8.83422e-05 1354.39 273.133 5.02473 5.02452 -0.685488 -0.89768 1.43085e+06 
198 -0.03025 8.83422e-05 1354.39 273.134 5.02475 5.02454 -0.65916 -0.860155 1.4308e+06 
199 -0.03015 8.83415e-05 1354.39 273.134 5.02471 5.02449 -0.67072 -0.893137 1.43083e+06 
176 -0.03245 8.83423e-05 1354.39 273.127 5.02462 5.02436 -0.431062 -0.594517 1.42967e+06 
177 -0.03235 8.8342e-05 1354.39 273.129 5.02463 5.0244 -0.471723 -0.611138 1.42973e+06 
178 -0.03225 8.83411e-05 1354.4 273.126 5.02454 5.02423 -0.474835 -0.59802 1.42966e+06 
179 -0.03215 8.83426e-05 1354.39 273.127 5.02463 5.0243 -0.445879 -0.497114 1.42963e+06 
180 -0.03205 8.83419e-05 1354.39 273.127 5.0246 5.02427 -0.45512 -0.500627 1.42971e+06 
181 -0.03195 8.83416e-05 1354.39 273.127 5.02459 5.02427 -0.441909 -0.469446 1.42972e+06 
182 -0.03185 8.83424e-05 1354.39 273.127 5.02463 5.02431 -0.424201 -0.500401 1.42976e+06 
183 -0.03175 8.83413e-05 1354.39 273.125 5.02453 5.02427 -0.409674 -0.471387 1.4297e+06 
184 -0.03165 8.83424e-05 1354.39 273.127 5.02462 5.02432 -0.445114 -0.523867 1.42976e+06 
185 -0.03155 8.83421e-05 1354.4 273.128 5.02463 5.02438 -0.403043 -0.443385 1.42977e+06 
186 -0.03145 8.83415e-05 1354.4 273.128 5.02459 5.02428 -0.465948 -0.521664 1.42985e+06 
187 -0.03135 8.83425e-05 1354.39 273.129 5.02467 5.02444 -0.494589 -0.56993 1.42999e+06 
188 -0.03125 8.83417e-05 1354.39 273.13 5.02463 5.02445 -0.509928 -0.598003 1.43009e+06 
189 -0.03115 8.83414e-05 1354.39 273.128 5.02459 5.02435 -0.521549 -0.601051 1.43006e+06 
190 -0.03105 8.83423e-05 1354.39 273.13 5.02468 5.0244 -0.509576 -0.593002 1.43019e+06 
191 -0.03095 8.83418e-05 1354.39 273.129 5.02463 5.02431 -0.472755 -0.539714 1.43011e+06 
192 -0.03085 8.83414e-05 1354.39 273.126 5.02455 5.02428 -0.526477 -0.642376 1.43016e+06 
201 -0.02995 8.83416e-05 1354.39 273.136 5.02474 5.02453 -0.74729 -0.991912 1.43102e+06 
225 -0.02755 8.83432e-05 1354.38 273.157 5.02522 5.02567 -1.49429 -2.16188 1.43449e+06 
202 -0.02985 8.83425e-05 1354.39 273.136 5.02479 5.02465 -0.783461 -1.04364 1.43113e+06 
203 -0.02975 8.83417e-05 1354.39 273.137 5.02477 5.02465 -0.755982 -1.0152 1.43118e+06 
204 -0.02965 8.83424e-05 1354.39 273.134 5.02476 5.02462 -0.775937 -1.07885 1.43123e+06 
205 -0.02955 8.83418e-05 1354.39 273.141 5.02484 5.02469 -0.849307 -1.16761 1.43142e+06 
206 -0.02945 8.83424e-05 1354.39 273.138 5.02483 5.02472 -0.848673 -1.16128 1.43145e+06 
207 -0.02935 8.8342e-05 1354.39 273.137 5.02479 5.02466 -0.886444 -1.2018 1.43151e+06 
208 -0.02925 8.83422e-05 1354.39 273.141 5.02486 5.02478 -0.919774 -1.22247 1.43174e+06 
209 -0.02915 8.83418e-05 1354.39 273.14 5.02482 5.02476 -0.905553 -1.19257 1.43176e+06 
210 -0.02905 8.83421e-05 1354.39 273.143 5.02489 5.02489 -0.995661 -1.34383 1.43204e+06 
211 -0.02895 8.83423e-05 1354.39 273.142 5.0249 5.02492 -1.03628 -1.40096 1.43218e+06 
212 -0.02885 8.8342e-05 1354.39 273.145 5.02493 5.02506 -1.02953 -1.42111 1.4323e+06 
213 -0.02875 8.83421e-05 1354.39 273.143 5.02491 5.0251 -1.04482 -1.45137 1.43243e+06 
214 -0.02865 8.83426e-05 1354.39 273.142 5.02491 5.02511 -1.05052 -1.48115 1.43251e+06 
215 -0.02855 8.83424e-05 1354.38 273.145 5.02496 5.02516 -1.07429 -1.55276 1.43263e+06 
216 -0.02845 8.83423e-05 1354.39 273.148 5.025 5.02528 -1.10768 -1.57147 1.43288e+06 
217 -0.02835 8.83422e-05 1354.38 273.146 5.02496 5.02524 -1.17432 -1.68318 1.43297e+06 
218 -0.02825 8.83429e-05 1354.39 273.149 5.02506 5.02549 -1.20415 -1.74889 1.43322e+06 
219 -0.02815 8.83419e-05 1354.38 273.149 5.025 5.02552 -1.26159 -1.87377 1.43342e+06 
220 -0.02805 8.83427e-05 1354.38 273.151 5.02508 5.02554 -1.23855 -1.82182 1.43349e+06 
221 -0.02795 8.83424e-05 1354.39 273.152 5.02508 5.02553 -1.29374 -1.91234 1.43369e+06 
222 -0.02785 8.83431e-05 1354.38 273.151 5.0251 5.02554 -1.32027 -1.96463 1.43384e+06 
223 -0.02775 8.83427e-05 1354.38 273.153 5.02513 5.02562 -1.37873 -2.00682 1.4341e+06 
224 -0.02765 8.8343e-05 1354.38 273.157 5.02521 5.02568 -1.50828 -2.09424 1.43449e+06 
234 -0.02665 8.83431e-05 1354.38 273.167 5.0254 5.02608 -1.91858 -2.8698 1.4366e+06 
226 -0.02745 8.83433e-05 1354.38 273.158 5.02524 5.0257 -1.55468 -2.25408 1.43474e+06 
227 -0.02735 8.83425e-05 1354.38 273.159 5.02522 5.02563 -1.55375 -2.22078 1.43484e+06 
228 -0.02725 8.83431e-05 1354.38 273.159 5.02524 5.02568 -1.62513 -2.33503 1.43509e+06 
229 -0.02715 8.83433e-05 1354.38 273.16 5.02528 5.02582 -1.64985 -2.43422 1.4353e+06 
230 -0.02705 8.83428e-05 1354.38 273.161 5.02527 5.02583 -1.6726 -2.4763 1.43544e+06 
231 -0.02695 8.83428e-05 1354.38 273.161 5.02527 5.02597 -1.76577 -2.60223 1.4358e+06 
232 -0.02685 8.83431e-05 1354.38 273.164 5.02535 5.02593 -1.79186 -2.63479 1.43597e+06 
233 -0.02675 8.83428e-05 1354.38 273.167 5.02539 5.02599 -1.86185 -2.75183 1.4363e+06 
235 -0.02655 8.83435e-05 1354.38 273.167 5.02543 5.0261 -1.96225 -2.92653 1.43677e+06 
236 -0.02645 8.83433e-05 1354.38 273.169 5.02545 5.02612 -2.01702 -3.03364 1.43708e+06 
237 -0.02635 8.83428e-05 1354.38 273.173 5.02549 5.02626 -2.08056 -3.12868 1.43744e+06 
238 -0.02625 8.83444e-05 1354.38 273.173 5.02559 5.02646 -2.18453 -3.28537 1.43789e+06 
239 -0.02615 8.8343e-05 1354.38 273.179 5.02561 5.02655 -2.25934 -3.42565 1.43827e+06 
240 -0.02605 8.83436e-05 1354.38 273.177 5.02562 5.02664 -2.3451 -3.54336 1.43861e+06 
241 -0.02595 8.83435e-05 1354.37 273.182 5.02571 5.02671 -2.4817 -3.71206 1.43907e+06 
242 -0.02585 8.83435e-05 1354.37 273.185 5.02576 5.02675 -2.53062 -3.77863 1.4394e+06 
243 -0.02575 8.83434e-05 1354.37 273.186 5.02578 5.02675 -2.64469 -3.92996 1.43984e+06 
244 -0.02565 8.83442e-05 1354.37 273.19 5.02588 5.02683 -2.71226 -4.02162 1.44016e+06 
245 -0.02555 8.83431e-05 1354.37 273.188 5.02579 5.02671 -2.72607 -4.02357 1.44039e+06 
246 -0.02545 8.83438e-05 1354.37 273.193 5.02592 5.02691 -2.85961 -4.24922 1.44084e+06 
247 -0.02535 8.83438e-05 1354.37 273.197 5.02599 5.027 -2.94984 -4.38408 1.44124e+06 
248 -0.02525 8.83436e-05 1354.37 273.2 5.02603 5.02707 -3.13042 -4.6122 1.44181e+06 
249 -0.02515 8.83439e-05 1354.37 273.202 5.02609 5.02727 -3.25952 -4.81422 1.44248e+06 
250 -0.02505 8.8344e-05 1354.37 273.211 5.02625 5.02744 -3.44494 -5.08097 1.44312e+06 
267 -0.02335 8.83449e-05 1354.35 273.282 5.02763 5.02969 -6.08328 -9.12597 1.45479e+06 
257 -0.02435 8.83445e-05 1354.37 273.226 5.02656 5.02777 -4.14621 -6.10701 1.44647e+06 
258 -0.02425 8.83438e-05 1354.36 273.234 5.02666 5.02789 -4.41262 -6.43593 1.44735e+06 
259 -0.02415 8.83447e-05 1354.36 273.237 5.02678 5.02807 -4.45863 -6.52497 1.44776e+06 
260 -0.02405 8.83438e-05 1354.36 273.244 5.02685 5.0283 -4.70125 -6.91389 1.44879e+06 
261 -0.02395 8.83445e-05 1354.36 273.247 5.02695 5.02845 -4.8673 -7.1594 1.44946e+06 
262 -0.02385 8.83444e-05 1354.36 273.255 5.02709 5.02873 -5.10167 -7.54851 1.45047e+06 
263 -0.02375 8.8345e-05 1354.36 273.261 5.02724 5.02891 -5.2989 -7.81498 1.45129e+06 
264 -0.02365 8.83446e-05 1354.35 273.264 5.02727 5.02909 -5.382 -8.00502 1.45185e+06 
265 -0.02355 8.83439e-05 1354.35 273.268 5.02731 5.02915 -5.63618 -8.39106 1.45285e+06 
266 -0.02345 8.83449e-05 1354.35 273.278 5.02754 5.02951 -5.87918 -8.77791 1.45388e+06 
268 -0.02325 8.83452e-05 1354.35 273.288 5.02774 5.02995 -6.32258 -9.45794 1.45573e+06 
269 -0.02315 8.8345e-05 1354.34 273.298 5.02791 5.03028 -6.55491 -9.82937 1.45673e+06 
270 -0.02305 8.83456e-05 1354.34 273.302 5.02803 5.03044 -6.74651 -10.1453 1.45765e+06 
271 -0.02295 8.83455e-05 1354.34 273.307 5.02812 5.03058 -6.90681 -10.4244 1.45848e+06 
272 -0.02285 8.83454e-05 1354.34 273.314 5.02824 5.03082 -7.22209 -10.883 1.45968e+06 
273 -0.02275 8.83454e-05 1354.34 273.325 5.02845 5.03122 -7.61285 -11.409 1.46121e+06 
274 -0.02265 8.83462e-05 1354.33 273.333 5.02863 5.03148 -7.9198 -11.8693 1.46245e+06 
275 -0.02255 8.83455e-05 1354.33 273.34 5.02871 5.03155 -8.15032 -12.1682 1.46336e+06 
251 -0.02495 8.83442e-05 1354.37 273.211 5.02628 5.0275 -3.5485 -5.20372 1.44352e+06 
252 -0.02485 8.83446e-05 1354.37 273.214 5.02634 5.02754 -3.61597 -5.33791 1.44392e+06 
253 -0.02475 8.83434e-05 1354.37 273.217 5.02633 5.02756 -3.69884 -5.45647 1.44438e+06 
254 -0.02465 8.83442e-05 1354.37 273.216 5.02637 5.02753 -3.74951 -5.51163 1.44476e+06 
255 -0.02455 8.83443e-05 1354.37 273.219 5.02643 5.02762 -3.84625 -5.696 1.44518e+06 
256 -0.02445 8.83438e-05 1354.36 273.225 5.02651 5.02769 -3.99998 -5.89677 1.44586e+06 
300 -0.02005 8.83514e-05 1354.23 273.701 5.0357 5.04344 -21.2597 -31.4836 1.5182e+06 
289 -0.02115 8.83478e-05 1354.29 273.503 5.03184 5.03671 -14.0628 -20.6818 1.48772e+06 
290 -0.02105 8.83485e-05 1354.29 273.518 5.03216 5.03729 -14.5563 -21.451 1.48994e+06 
291 -0.02095 8.8349e-05 1354.28 273.524 5.03231 5.03753 -14.9076 -21.9972 1.49171e+06 
292 -0.02085 8.83488e-05 1354.28 273.543 5.03264 5.03817 -15.4925 -22.8993 1.49426e+06 
293 -0.02075 8.83492e-05 1354.27 273.566 5.03309 5.03902 -16.3199 -24.1638 1.49743e+06 
294 -0.02065 8.83497e-05 1354.27 273.579 5.03337 5.03956 -16.8353 -24.9498 1.49971e+06 
295 -0.02055 8.83497e-05 1354.26 273.589 5.03354 5.03979 -17.2422 -25.6406 1.50166e+06 
296 -0.02045 8.83503e-05 1354.26 273.617 5.03409 5.04062 -18.1067 -26.8775 1.50497e+06 
297 -0.02035 8.83504e-05 1354.25 273.635 5.03442 5.04129 -18.9057 -28.1392 1.50843e+06 
298 -0.02025 8.83502e-05 1354.25 273.655 5.03478 5.04183 -19.564 -29.0385 1.51117e+06 
299 -0.02015 8.83518e-05 1354.24 273.676 5.03525 5.04268 -20.3633 -30.2375 1.51452e+06 
276 -0.02245 8.83456e-05 1354.33 273.35 5.02891 5.03192 -8.49772 -12.6616 1.46502e+06 
277 -0.02235 8.83454e-05 1354.33 273.356 5.02901 5.03201 -8.70656 -13.0208 1.46585e+06 
278 -0.02225 8.8346e-05 1354.33 273.368 5.02926 5.03239 -9.14177 -13.5912 1.46758e+06 
279 -0.02215 8.83467e-05 1354.32 273.374 5.02941 5.03271 -9.4047 -14.009 1.4687e+06 
280 -0.02205 8.8346e-05 1354.32 273.384 5.02956 5.03296 -9.78846 -14.5356 1.47034e+06 
281 -0.02195 8.83462e-05 1354.32 273.392 5.02972 5.03313 -9.99176 -14.8306 1.47131e+06 
282 -0.02185 8.83467e-05 1354.32 273.405 5.02998 5.03366 -10.5311 -15.5928 1.47332e+06 
283 -0.02175 8.83473e-05 1354.31 273.423 5.03034 5.03428 -11.0737 -16.3376 1.47553e+06 
284 -0.02165 8.83467e-05 1354.31 273.432 5.03049 5.0345 -11.447 -16.9205 1.47707e+06 
285 -0.02155 8.8347e-05 1354.3 273.442 5.03068 5.03488 -11.8818 -17.641 1.47905e+06 
286 -0.02145 8.83483e-05 1354.3 273.457 5.03104 5.03547 -12.4349 -18.4201 1.48109e+06 
287 -0.02135 8.83472e-05 1354.3 273.473 5.03126 5.03591 -12.9807 -19.1564 1.4833e+06 
288 -0.02125 8.83487e-05 1354.29 273.488 5.03162 5.03644 -13.4231 -19.8452 1.48528e+06 
301 -0.01995 8.83518e-05 1354.23 273.723 5.03612 5.04418 -22.104 -32.7603 1.52175e+06 
321 -0.01795 8.83648e-05 1354.03 274.439 5.05005 5.0683 -47.9613 -71.0775 1.62981e+06 
322 -0.01785 8.83659e-05 1354.01 274.492 5.05109 5.07015 -49.9969 -74.1022 1.63807e+06 
323 -0.01775 8.83675e-05 1354 274.548 5.0522 5.07211 -51.9341 -77.0219 1.64647e+06 
324 -0.01765 8.83687e-05 1353.98 274.603 5.05327 5.07374 -53.9403 -80.0124 1.65477e+06 
325 -0.01755 8.83689e-05 1353.96 274.662 5.05438 5.0758 -56.0721 -83.2344 1.66361e+06 
302 -0.01985 8.83525e-05 1354.22 273.751 5.03668 5.04523 -23.0223 -34.2489 1.52559e+06 
303 -0.01975 8.83526e-05 1354.21 273.775 5.03713 5.04615 -23.9377 -35.6936 1.52958e+06 
304 -0.01965 8.83534e-05 1354.21 273.802 5.03767 5.04691 -24.8954 -37.008 1.5334e+06 
305 -0.01955 8.8354e-05 1354.2 273.826 5.03814 5.04776 -25.7805 -38.4013 1.53724e+06 
306 -0.01945 8.83538e-05 1354.19 273.853 5.03864 5.04866 -26.6972 -39.81 1.54124e+06 
307 -0.01935 8.83554e-05 1354.18 273.883 5.03927 5.0498 -27.8546 -41.4411 1.54587e+06 
308 -0.01925 8.83547e-05 1354.17 273.917 5.03985 5.05076 -29.1237 -43.2275 1.55094e+06 
309 -0.01915 8.83562e-05 1354.16 273.953 5.0406 5.05203 -30.3689 -45.0254 1.55613e+06 
310 -0.01905 8.83566e-05 1354.15 273.981 5.04114 5.05299 -31.407 -46.5954 1.56057e+06 
311 -0.01895 8.83572e-05 1354.15 274.016 5.04182 5.05418 -32.656 -48.347 1.56587e+06 
312 -0.01885 8.83575e-05 1354.14 274.041 5.04231 5.05512 -33.7084 -50.0989 1.57043e+06 
313 -0.01875 8.83588e-05 1354.13 274.083 5.04315 5.05648 -35.1321 -52.2121 1.57658e+06 
314 -0.01865 8.83595e-05 1354.11 274.123 5.04392 5.0578 -36.5261 -54.247 1.5822e+06 
315 -0.01855 8.83594e-05 1354.1 274.162 5.04463 5.05895 -37.9579 -56.3474 1.58819e+06 
316 -0.01845 8.83609e-05 1354.09 274.201 5.04544 5.06027 -39.4059 -58.408 1.59444e+06 
317 -0.01835 8.83617e-05 1354.08 274.243 5.04626 5.06167 -40.9619 -60.7284 1.60076e+06 
318 -0.01825 8.83622e-05 1354.07 274.286 5.04708 5.0631 -42.4538 -63.0869 1.60717e+06 
319 -0.01815 8.83633e-05 1354.06 274.333 5.04801 5.06489 -44.2396 -65.7247 1.61447e+06 
320 -0.01805 8.83645e-05 1354.04 274.385 5.04903 5.06642 -45.9962 -68.1241 1.62166e+06 
334 -0.01665 8.83816e-05 1353.78 275.325 5.06731 5.09834 -80.1962 -119.277 1.76371e+06 
326 -0.01745 8.83701e-05 1353.95 274.718 5.05547 5.07793 -58.1118 -86.5965 1.67241e+06 
327 -0.01735 8.83717e-05 1353.93 274.789 5.05687 5.08021 -60.7072 -90.3235 1.68293e+06 
328 -0.01725 8.83735e-05 1353.91 274.853 5.05816 5.08254 -62.9793 -93.8693 1.6927e+06 
329 -0.01715 8.83735e-05 1353.89 274.927 5.05952 5.08479 -65.681 -97.5258 1.70344e+06 
330 -0.01705 8.83753e-05 1353.87 275.003 5.06103 5.08735 -68.4346 -101.585 1.71482e+06 
331 -0.01695 8.83771e-05 1353.85 275.08 5.06254 5.08996 -71.1881 -105.655 1.72628e+06 
332 -0.01685 8.83778e-05 1353.83 275.154 5.06394 5.09243 -73.9204 -109.863 1.73778e+06 
333 -0.01675 8.83798e-05 1353.8 275.237 5.06557 5.09541 -76.9103 -114.428 1.7501e+06 
335 -0.01655 8.83826e-05 1353.76 275.414 5.06901 5.10127 -83.2706 -123.744 1.77638e+06 
336 -0.01645 8.83843e-05 1353.73 275.513 5.07093 5.10471 -86.9537 -129.133 1.7915e+06 
337 -0.01635 8.83856e-05 1353.7 275.607 5.07274 5.1076 -90.3291 -134.075 1.80557e+06 
338 -0.01625 8.83887e-05 1353.67 275.705 5.07471 5.11124 -93.7952 -139.497 1.82004e+06 
339 -0.01615 8.83901e-05 1353.64 275.823 5.07697 5.11519 -98.1383 -145.781 1.83748e+06 