ITEM: TIMESTEP
30000
ITEM: NUMBER OF CELLS
800
ITEM: BOX BOUNDS os pp pp
-0.05 0.03
-0.001 0.001
-0.001 0.001
ITEM: CELLS id f_1[1] f_1[2] f_1[3] f_1[4] f_1[5] f_1[6] f_1[7] f_1[8] f_1[9] 
1 -0.04995 8.83417e-05 2093.17 273.119 5.02444 5.02324 -0.116318 -0.138713 1.42705e+06 
2 -0.04985 8.83418e-05 2093.17 273.121 5.02448 5.02325 -0.0962282 -0.113752 1.42709e+06 
3 -0.04975 8.83411e-05 2093.17 273.121 5.02444 5.02327 -0.117603 -0.144646 1.42713e+06 
4 -0.04965 8.83409e-05 2093.17 273.121 5.02442 5.0233 -0.133239 -0.178596 1.42724e+06 
5 -0.04955 8.83424e-05 2093.17 273.121 5.02451 5.02334 -0.149177 -0.211439 1.42728e+06 
6 -0.04945 8.83411e-05 2093.17 273.118 5.02439 5.02326 -0.171475 -0.2696 1.42733e+06 
7 -0.04935 8.83412e-05 2093.17 273.122 5.02446 5.02341 -0.166533 -0.244099 1.42744e+06 
8 -0.04925 8.83415e-05 2093.17 273.123 5.0245 5.02351 -0.2073 -0.315021 1.42759e+06 
9 -0.04915 8.83418e-05 2093.17 273.123 5.02452 5.02349 -0.259493 -0.394911 1.42771e+06 
10 -0.04905 8.83418e-05 2093.17 273.121 5.02447 5.02343 -0.222535 -0.329785 1.42757e+06 
11 -0.04895 8.8341e-05 2093.17 273.124 5.02448 5.02346 -0.249699 -0.382599 1.4277e+06 
12 -0.04885 8.83417e-05 2093.17 273.122 5.02449 5.02345 -0.256998 -0.379937 1.42779e+06 
13 -0.04875 8.83415e-05 2093.17 273.123 5.02449 5.02347 -0.282435 -0.425522 1.4278e+06 
14 -0.04865 8.83409e-05 2093.17 273.124 5.02448 5.02348 -0.284412 -0.421112 1.42783e+06 
15 -0.04855 8.8342e-05 2093.17 273.125 5.02456 5.02358 -0.310128 -0.478574 1.42797e+06 
16 -0.04845 8.83415e-05 2093.16 273.122 5.02448 5.02357 -0.277362 -0.451005 1.42792e+06 
17 -0.04835 8.83416e-05 2093.17 273.123 5.0245 5.02353 -0.334176 -0.526314 1.428e+06 
18 -0.04825 8.83414e-05 2093.17 273.124 5.02451 5.02355 -0.309405 -0.469554 1.42808e+06 
19 -0.04815 8.83417e-05 2093.17 273.125 5.02454 5.02353 -0.343569 -0.533092 1.42815e+06 
20 -0.04805 8.83422e-05 2093.16 273.123 5.02453 5.02354 -0.324724 -0.51854 1.42813e+06 
21 -0.04795 8.83409e-05 2093.17 273.124 5.02448 5.02348 -0.34465 -0.545166 1.42823e+06 
22 -0.04785 8.83429e-05 2093.17 273.123 5.02459 5.0236 -0.342473 -0.545806 1.42824e+06 
23 -0.04775 8.83407e-05 2093.16 273.125 5.02449 5.02354 -0.353785 -0.580466 1.42835e+06 
24 -0.04765 8.83417e-05 2093.16 273.125 5.02455 5.02361 -0.362675 -0.589649 1.42835e+06 
25 -0.04755 8.83412e-05 2093.16 273.124 5.0245 5.02357 -0.343252 -0.581079 1.42839e+06 
34 -0.04665 8.83416e-05 2093.16 273.126 5.02456 5.02366 -0.456297 -0.745774 1.42881e+06 
33 -0.04675 8.83419e-05 2093.16 273.126 5.02457 5.02371 -0.41539 -0.68305 1.42866e+06 
35 -0.04655 8.83418e-05 2093.16 273.126 5.02457 5.02366 -0.410562 -0.722992 1.42866e+06 
36 -0.04645 8.83422e-05 2093.16 273.126 5.0246 5.02376 -0.435707 -0.742483 1.4288e+06 
37 -0.04635 8.83414e-05 2093.16 273.125 5.02453 5.02373 -0.435945 -0.744633 1.42872e+06 
38 -0.04625 8.83414e-05 2093.17 273.126 5.02455 5.02375 -0.45711 -0.794624 1.42889e+06 
39 -0.04615 8.83425e-05 2093.16 273.126 5.02461 5.02391 -0.484058 -0.837397 1.429e+06 
40 -0.04605 8.83415e-05 2093.16 273.127 5.02457 5.02386 -0.480265 -0.845455 1.42899e+06 
41 -0.04595 8.83418e-05 2093.16 273.125 5.02456 5.02381 -0.49201 -0.843265 1.42909e+06 
42 -0.04585 8.83417e-05 2093.16 273.127 5.02459 5.02391 -0.509845 -0.893462 1.42917e+06 
43 -0.04575 8.8341e-05 2093.16 273.127 5.02454 5.02386 -0.537562 -0.916825 1.42928e+06 
44 -0.04565 8.83426e-05 2093.16 273.126 5.02463 5.02397 -0.557599 -0.945303 1.4294e+06 
45 -0.04555 8.83421e-05 2093.16 273.127 5.0246 5.02391 -0.563286 -0.924971 1.42944e+06 
46 -0.04545 8.83419e-05 2093.16 273.126 5.02458 5.02392 -0.549335 -0.906575 1.42937e+06 
47 -0.04535 8.83417e-05 2093.16 273.129 5.02461 5.02392 -0.563336 -0.90566 1.42958e+06 
48 -0.04525 8.83421e-05 2093.16 273.126 5.02459 5.0239 -0.601152 -0.931198 1.42966e+06 
49 -0.04515 8.83411e-05 2093.16 273.131 5.02462 5.02394 -0.640953 -0.984069 1.42982e+06 
50 -0.04505 8.83419e-05 2093.16 273.127 5.0246 5.0239 -0.606415 -0.936384 1.42969e+06 
26 -0.04745 8.83412e-05 2093.17 273.124 5.02449 5.02353 -0.364731 -0.611724 1.42841e+06 
27 -0.04735 8.83418e-05 2093.16 273.124 5.02453 5.02359 -0.390519 -0.657145 1.42843e+06 
28 -0.04725 8.83413e-05 2093.16 273.127 5.02456 5.02364 -0.349154 -0.578787 1.42844e+06 
29 -0.04715 8.8342e-05 2093.17 273.124 5.02455 5.02362 -0.367712 -0.639524 1.42842e+06 
30 -0.04705 8.83421e-05 2093.16 273.126 5.02459 5.02373 -0.401969 -0.694374 1.42874e+06 
31 -0.04695 8.83416e-05 2093.16 273.125 5.02455 5.02365 -0.441615 -0.74379 1.42868e+06 
32 -0.04685 8.8341e-05 2093.17 273.127 5.02454 5.02358 -0.453697 -0.738687 1.42879e+06 
67 -0.04335 8.83417e-05 2093.16 273.132 5.02468 5.02415 -0.764781 -1.15048 1.43082e+06 
65 -0.04355 8.83415e-05 2093.16 273.132 5.02466 5.02405 -0.759013 -1.16515 1.43073e+06 
66 -0.04345 8.83417e-05 2093.16 273.129 5.02463 5.024 -0.751551 -1.16222 1.43066e+06 
68 -0.04325 8.8342e-05 2093.16 273.129 5.02464 5.024 -0.749778 -1.14883 1.43065e+06 
69 -0.04315 8.83421e-05 2093.16 273.132 5.02469 5.02409 -0.75933 -1.17851 1.43088e+06 
70 -0.04305 8.83413e-05 2093.16 273.133 5.02467 5.02405 -0.782927 -1.18242 1.43097e+06 
71 -0.04295 8.83421e-05 2093.16 273.13 5.02467 5.02404 -0.793336 -1.21765 1.4309e+06 
72 -0.04285 8.83417e-05 2093.16 273.133 5.02469 5.02413 -0.851004 -1.28733 1.43128e+06 
73 -0.04275 8.83419e-05 2093.16 273.135 5.02475 5.02421 -0.845565 -1.28674 1.43137e+06 
74 -0.04265 8.83425e-05 2093.16 273.134 5.02476 5.02432 -0.956156 -1.42947 1.43189e+06 
75 -0.04255 8.83413e-05 2093.16 273.135 5.0247 5.02414 -0.955192 -1.38889 1.43185e+06 
51 -0.04495 8.83413e-05 2093.16 273.128 5.02458 5.02393 -0.645994 -1.02198 1.42981e+06 
52 -0.04485 8.83432e-05 2093.16 273.127 5.02467 5.02399 -0.561975 -0.912717 1.42959e+06 
53 -0.04475 8.83407e-05 2093.16 273.129 5.02456 5.02396 -0.58286 -0.928783 1.4297e+06 
54 -0.04465 8.83422e-05 2093.16 273.128 5.02464 5.02402 -0.594472 -0.9321 1.42971e+06 
55 -0.04455 8.83411e-05 2093.16 273.128 5.02456 5.02392 -0.64171 -0.988948 1.42993e+06 
56 -0.04445 8.83419e-05 2093.16 273.13 5.02464 5.02395 -0.670757 -1.01352 1.43006e+06 
57 -0.04435 8.83417e-05 2093.16 273.129 5.02463 5.02396 -0.673389 -1.00213 1.43002e+06 
58 -0.04425 8.8342e-05 2093.16 273.128 5.02461 5.02398 -0.662829 -1.00211 1.4301e+06 
59 -0.04415 8.8341e-05 2093.16 273.131 5.02461 5.02399 -0.684165 -1.03198 1.43018e+06 
60 -0.04405 8.83422e-05 2093.16 273.129 5.02464 5.02398 -0.691954 -1.0457 1.43016e+06 
61 -0.04395 8.83419e-05 2093.16 273.13 5.02465 5.02404 -0.698888 -1.07873 1.43035e+06 
62 -0.04385 8.83413e-05 2093.16 273.131 5.02463 5.02401 -0.692648 -1.07902 1.43021e+06 
63 -0.04375 8.83415e-05 2093.16 273.128 5.0246 5.02401 -0.689475 -1.06174 1.43038e+06 
64 -0.04365 8.83417e-05 2093.16 273.131 5.02466 5.02397 -0.686739 -1.06765 1.43033e+06 
100 -0.04005 8.8341e-05 2093.16 273.145 5.02487 5.02472 -1.38662 -2.08824 1.43528e+06 
97 -0.04035 8.83417e-05 2093.16 273.14 5.02483 5.0247 -1.26471 -1.91634 1.4347e+06 
98 -0.04025 8.83418e-05 2093.16 273.144 5.02489 5.0248 -1.37282 -2.04985 1.43511e+06 
99 -0.04015 8.83419e-05 2093.16 273.143 5.02489 5.02474 -1.49483 -2.1699 1.43568e+06 
76 -0.04245 8.83422e-05 2093.16 273.136 5.02477 5.02422 -0.949046 -1.4484 1.43192e+06 
77 -0.04235 8.83419e-05 2093.16 273.136 5.02476 5.02428 -0.943007 -1.46128 1.43191e+06 
78 -0.04225 8.83427e-05 2093.16 273.134 5.02477 5.02431 -0.914278 -1.37668 1.43192e+06 
79 -0.04215 8.83413e-05 2093.16 273.135 5.0247 5.02424 -0.946576 -1.44049 1.43194e+06 
80 -0.04205 8.83424e-05 2093.16 273.137 5.0248 5.02425 -0.99334 -1.49793 1.43228e+06 
81 -0.04195 8.83414e-05 2093.16 273.136 5.02473 5.02431 -0.929601 -1.46531 1.43223e+06 
82 -0.04185 8.83421e-05 2093.16 273.133 5.02472 5.02425 -0.988989 -1.51764 1.43227e+06 
83 -0.04175 8.83423e-05 2093.16 273.136 5.02479 5.02428 -0.979787 -1.5109 1.43249e+06 
84 -0.04165 8.83418e-05 2093.16 273.138 5.02479 5.02437 -1.00355 -1.56005 1.43261e+06 
85 -0.04155 8.83425e-05 2093.16 273.137 5.0248 5.02438 -1.04441 -1.57977 1.43289e+06 
86 -0.04145 8.83424e-05 2093.16 273.137 5.02482 5.02446 -1.06024 -1.60148 1.43297e+06 
87 -0.04135 8.83411e-05 2093.16 273.135 5.02471 5.02433 -1.08307 -1.63902 1.43311e+06 
88 -0.04125 8.83429e-05 2093.16 273.141 5.02491 5.02449 -1.15018 -1.70965 1.4334e+06 
89 -0.04115 8.83422e-05 2093.16 273.137 5.02479 5.02451 -1.11689 -1.69809 1.43347e+06 
90 -0.04105 8.83422e-05 2093.16 273.139 5.02484 5.02448 -1.11074 -1.70957 1.43332e+06 
91 -0.04095 8.83413e-05 2093.16 273.138 5.02476 5.02446 -1.10795 -1.74042 1.4334e+06 
92 -0.04085 8.83419e-05 2093.16 273.138 5.02479 5.0245 -1.14468 -1.80816 1.43364e+06 
93 -0.04075 8.83417e-05 2093.16 273.14 5.02482 5.02459 -1.16145 -1.78956 1.43389e+06 
94 -0.04065 8.83418e-05 2093.16 273.139 5.0248 5.0246 -1.18836 -1.81364 1.43393e+06 
95 -0.04055 8.83418e-05 2093.16 273.142 5.02486 5.02459 -1.19653 -1.81879 1.43411e+06 
96 -0.04045 8.83426e-05 2093.16 273.139 5.02486 5.02464 -1.2766 -1.92831 1.43441e+06 
101 -0.03995 8.83423e-05 2093.16 273.14 5.02486 5.0247 -1.44863 -2.1874 1.43568e+06 
102 -0.03985 8.83415e-05 2093.16 273.148 5.02495 5.02481 -1.52139 -2.28268 1.43628e+06 
103 -0.03975 8.83416e-05 2093.15 273.146 5.02492 5.02484 -1.5632 -2.35854 1.43643e+06 
104 -0.03965 8.83422e-05 2093.16 273.145 5.02494 5.02482 -1.61563 -2.40554 1.43654e+06 
105 -0.03955 8.83427e-05 2093.16 273.148 5.02503 5.025 -1.66786 -2.53072 1.43709e+06 
106 -0.03945 8.83411e-05 2093.16 273.15 5.02498 5.02509 -1.701 -2.58666 1.43743e+06 
107 -0.03935 8.83414e-05 2093.15 273.149 5.02498 5.02498 -1.75042 -2.62503 1.43761e+06 
108 -0.03925 8.83424e-05 2093.15 273.148 5.02501 5.02503 -1.82149 -2.74803 1.43788e+06 
109 -0.03915 8.83417e-05 2093.16 273.15 5.02501 5.0251 -1.75854 -2.63453 1.438e+06 
110 -0.03905 8.83422e-05 2093.15 273.152 5.02507 5.02518 -1.80809 -2.70414 1.43819e+06 
111 -0.03895 8.83421e-05 2093.15 273.15 5.02502 5.02515 -1.80447 -2.68816 1.43831e+06 
112 -0.03885 8.83414e-05 2093.16 273.153 5.02504 5.0252 -1.97878 -2.91229 1.43915e+06 
113 -0.03875 8.83422e-05 2093.16 273.152 5.02506 5.02518 -1.91233 -2.80295 1.43892e+06 
114 -0.03865 8.83419e-05 2093.15 273.154 5.02509 5.02524 -2.04723 -3.02768 1.4396e+06 
115 -0.03855 8.8342e-05 2093.15 273.153 5.02508 5.0253 -2.06988 -3.06883 1.43992e+06 
116 -0.03845 8.83418e-05 2093.15 273.155 5.02511 5.02538 -2.09733 -3.14908 1.44003e+06 
117 -0.03835 8.83422e-05 2093.15 273.16 5.02523 5.02548 -2.32591 -3.41677 1.44143e+06 
118 -0.03825 8.83421e-05 2093.15 273.158 5.02518 5.02541 -2.25467 -3.33347 1.44107e+06 
119 -0.03815 8.83419e-05 2093.15 273.16 5.02521 5.02553 -2.38186 -3.52742 1.44172e+06 
120 -0.03805 8.83425e-05 2093.15 273.161 5.02526 5.02561 -2.45706 -3.63452 1.44209e+06 
121 -0.03795 8.83427e-05 2093.15 273.163 5.0253 5.02567 -2.46968 -3.65418 1.44257e+06 
122 -0.03785 8.83427e-05 2093.15 273.163 5.0253 5.0256 -2.50732 -3.71177 1.44273e+06 
123 -0.03775 8.83421e-05 2093.15 273.162 5.02525 5.02564 -2.5252 -3.75695 1.44296e+06 
124 -0.03765 8.8342e-05 2093.15 273.164 5.02527 5.02559 -2.51811 -3.79077 1.44305e+06 
125 -0.03755 8.83423e-05 2093.15 273.163 5.02528 5.02567 -2.54845 -3.84965 1.44325e+06 
134 -0.03665 8.83422e-05 2093.15 273.175 5.0255 5.02608 -3.29575 -4.92068 1.44794e+06 
129 -0.03715 8.83424e-05 2093.15 273.168 5.02537 5.02589 -2.76845 -4.16975 1.44485e+06 
130 -0.03705 8.83422e-05 2093.15 273.17 5.02541 5.02595 -2.89199 -4.33826 1.44523e+06 
131 -0.03695 8.83413e-05 2093.15 273.172 5.02539 5.02605 -3.05997 -4.61564 1.44651e+06 
132 -0.03685 8.83438e-05 2093.15 273.175 5.0256 5.02625 -3.32696 -4.85579 1.44789e+06 
133 -0.03675 8.8341e-05 2093.15 273.181 5.02553 5.02617 -3.4008 -5.07159 1.44842e+06 
135 -0.03655 8.83426e-05 2093.15 273.18 5.0256 5.02621 -3.40199 -5.0631 1.44873e+06 
136 -0.03645 8.83419e-05 2093.15 273.181 5.0256 5.02627 -3.49893 -5.20703 1.44941e+06 
137 -0.03635 8.83423e-05 2093.15 273.182 5.02562 5.02626 -3.61844 -5.39768 1.45007e+06 
138 -0.03625 8.83417e-05 2093.15 273.185 5.02565 5.0264 -3.76337 -5.60341 1.45086e+06 
139 -0.03615 8.83425e-05 2093.15 273.187 5.02573 5.02645 -3.80281 -5.6589 1.45131e+06 
140 -0.03605 8.83411e-05 2093.15 273.186 5.02564 5.0264 -3.89776 -5.8245 1.45193e+06 
141 -0.03595 8.83428e-05 2093.15 273.188 5.02577 5.02657 -3.93093 -5.91791 1.45214e+06 
142 -0.03585 8.83425e-05 2093.15 273.194 5.02586 5.02673 -4.15859 -6.24378 1.45333e+06 
143 -0.03575 8.83423e-05 2093.14 273.191 5.0258 5.02674 -4.16797 -6.31492 1.45382e+06 
144 -0.03565 8.83414e-05 2093.14 273.196 5.02583 5.02675 -4.25432 -6.44982 1.45449e+06 
145 -0.03555 8.83431e-05 2093.15 273.196 5.02594 5.02692 -4.42635 -6.614 1.45517e+06 
146 -0.03545 8.83422e-05 2093.15 273.197 5.02589 5.02688 -4.48598 -6.75464 1.45568e+06 
147 -0.03535 8.83425e-05 2093.14 273.201 5.02599 5.02701 -4.71409 -7.07143 1.45711e+06 
148 -0.03525 8.83417e-05 2093.14 273.204 5.02599 5.02708 -4.81402 -7.19932 1.45765e+06 
149 -0.03515 8.83428e-05 2093.14 273.207 5.02612 5.02722 -4.92256 -7.36486 1.45847e+06 
150 -0.03505 8.83417e-05 2093.14 273.212 5.02615 5.0273 -5.32252 -7.8967 1.46044e+06 
126 -0.03745 8.83427e-05 2093.15 273.166 5.02535 5.02573 -2.69207 -4.00283 1.44421e+06 
127 -0.03735 8.83416e-05 2093.15 273.166 5.0253 5.0258 -2.66382 -4.03577 1.44402e+06 
128 -0.03725 8.83429e-05 2093.15 273.164 5.02534 5.02584 -2.60178 -3.9279 1.44391e+06 
167 -0.03335 8.83432e-05 2093.13 273.27 5.0273 5.02917 -8.5782 -12.5644 1.48069e+06 
161 -0.03395 8.83433e-05 2093.14 273.249 5.02692 5.0285 -7.3086 -10.7135 1.47286e+06 
162 -0.03385 8.83425e-05 2093.14 273.26 5.02707 5.02871 -7.93991 -11.3608 1.4758e+06 
163 -0.03375 8.83432e-05 2093.13 273.257 5.02706 5.02873 -7.76304 -11.4691 1.47576e+06 
164 -0.03365 8.83424e-05 2093.13 273.255 5.02698 5.02867 -7.76435 -11.4596 1.47599e+06 
165 -0.03355 8.83436e-05 2093.13 273.263 5.02719 5.02894 -8.11153 -12.0184 1.47781e+06 
166 -0.03345 8.83432e-05 2093.13 273.267 5.02724 5.02908 -8.32104 -12.301 1.47951e+06 
168 -0.03325 8.83423e-05 2093.13 273.272 5.02728 5.02912 -8.58865 -12.6894 1.48142e+06 
169 -0.03315 8.83438e-05 2093.13 273.275 5.02743 5.02939 -8.79935 -13.0914 1.48255e+06 
170 -0.03305 8.83434e-05 2093.13 273.28 5.02749 5.02949 -9.03404 -13.4154 1.48444e+06 
171 -0.03295 8.83434e-05 2093.13 273.284 5.02757 5.02947 -9.3439 -13.7728 1.48563e+06 
172 -0.03285 8.83428e-05 2093.13 273.289 5.02763 5.02971 -9.66549 -14.2612 1.48826e+06 
173 -0.03275 8.83434e-05 2093.13 273.296 5.0278 5.02992 -9.98079 -14.6705 1.48947e+06 
174 -0.03265 8.83437e-05 2093.13 273.3 5.02788 5.03015 -10.3019 -15.2202 1.49186e+06 
175 -0.03255 8.83433e-05 2093.13 273.308 5.028 5.03031 -10.5315 -15.4314 1.49319e+06 
151 -0.03495 8.83419e-05 2093.14 273.209 5.0261 5.02733 -5.32139 -7.93556 1.46059e+06 
152 -0.03485 8.83424e-05 2093.14 273.217 5.02628 5.02747 -5.52998 -8.18196 1.4621e+06 
153 -0.03475 8.83425e-05 2093.14 273.221 5.02635 5.0276 -5.70475 -8.4407 1.46301e+06 
154 -0.03465 8.83434e-05 2093.14 273.22 5.02639 5.02756 -5.7215 -8.44062 1.46345e+06 
155 -0.03455 8.8342e-05 2093.14 273.223 5.02637 5.02757 -5.87857 -8.67003 1.46447e+06 
156 -0.03445 8.83428e-05 2093.14 273.225 5.02645 5.02774 -6.1087 -8.95347 1.46574e+06 
157 -0.03435 8.83427e-05 2093.14 273.228 5.02649 5.02772 -6.23075 -9.12654 1.46651e+06 
158 -0.03425 8.83423e-05 2093.14 273.238 5.02666 5.028 -6.64401 -9.7309 1.46878e+06 
159 -0.03415 8.83426e-05 2093.14 273.235 5.02662 5.02807 -6.70774 -9.95889 1.46935e+06 
160 -0.03405 8.83426e-05 2093.14 273.241 5.02674 5.02827 -6.85574 -10.1674 1.47027e+06 
200 -0.03005 8.83457e-05 2093.09 273.509 5.03184 5.03716 -22.1707 -32.5426 1.56491e+06 
193 -0.03075 8.83441e-05 2093.1 273.436 5.0304 5.03478 -18.0435 -26.5255 1.53928e+06 
194 -0.03065 8.83439e-05 2093.1 273.446 5.03058 5.03502 -18.492 -27.1382 1.54228e+06 
195 -0.03055 8.83441e-05 2093.1 273.452 5.0307 5.03524 -18.8001 -27.622 1.5443e+06 
196 -0.03045 8.83443e-05 2093.1 273.466 5.03098 5.03574 -19.7415 -29.0304 1.54987e+06 
197 -0.03035 8.8344e-05 2093.1 273.473 5.03108 5.03588 -19.9839 -29.3472 1.55171e+06 
198 -0.03025 8.83448e-05 2093.1 273.481 5.03128 5.03611 -20.5115 -30.0099 1.5551e+06 
199 -0.03015 8.83438e-05 2093.1 273.492 5.03142 5.03645 -21.0992 -30.9768 1.55838e+06 
176 -0.03245 8.83442e-05 2093.13 273.311 5.02812 5.03054 -10.9138 -16.0656 1.49553e+06 
177 -0.03235 8.83425e-05 2093.12 273.32 5.02817 5.03071 -11.2971 -16.5632 1.49783e+06 
178 -0.03225 8.83438e-05 2093.12 273.324 5.02833 5.03095 -11.6542 -17.1123 1.49994e+06 
179 -0.03215 8.83438e-05 2093.12 273.331 5.02845 5.03114 -12.0699 -17.6364 1.5024e+06 
180 -0.03205 8.83424e-05 2093.12 273.335 5.02844 5.03118 -12.1807 -17.9208 1.50345e+06 
181 -0.03195 8.83439e-05 2093.12 273.339 5.02861 5.03148 -12.4604 -18.3716 1.50547e+06 
182 -0.03185 8.83439e-05 2093.12 273.343 5.02869 5.03165 -12.7062 -18.7397 1.50722e+06 
183 -0.03175 8.83436e-05 2093.12 273.353 5.02885 5.0319 -13.1097 -19.3944 1.50953e+06 
184 -0.03165 8.83428e-05 2093.12 273.362 5.02896 5.03226 -13.7299 -20.3554 1.51316e+06 
185 -0.03155 8.83445e-05 2093.11 273.365 5.02913 5.03247 -13.9725 -20.6395 1.51457e+06 
186 -0.03145 8.83444e-05 2093.11 273.378 5.02935 5.03293 -14.7195 -21.7328 1.51898e+06 
187 -0.03135 8.83427e-05 2093.11 273.386 5.0294 5.03305 -15.0463 -22.106 1.52094e+06 
188 -0.03125 8.83441e-05 2093.11 273.391 5.02957 5.03333 -15.4519 -22.7037 1.52343e+06 
189 -0.03115 8.83442e-05 2093.11 273.395 5.02966 5.03344 -15.6608 -23.0534 1.52523e+06 
190 -0.03105 8.83438e-05 2093.11 273.407 5.02985 5.03381 -16.3227 -23.9687 1.52883e+06 
191 -0.03095 8.83439e-05 2093.11 273.414 5.02998 5.03403 -16.6477 -24.4911 1.53131e+06 
192 -0.03085 8.83441e-05 2093.11 273.422 5.03015 5.03426 -17.2481 -25.2882 1.53476e+06 
201 -0.02995 8.83443e-05 2093.09 273.521 5.03197 5.03745 -22.7077 -33.3401 1.56804e+06 
225 -0.02755 8.83481e-05 2093.02 273.926 5.03964 5.05048 -45.8348 -67.3104 1.71068e+06 
202 -0.02985 8.8345e-05 2093.09 273.527 5.03213 5.03759 -23.0799 -33.774 1.57106e+06 
203 -0.02975 8.83447e-05 2093.08 273.541 5.03238 5.03818 -24.0514 -35.1732 1.57643e+06 
204 -0.02965 8.83445e-05 2093.08 273.553 5.03259 5.03845 -24.5741 -36.0458 1.58004e+06 
205 -0.02955 8.83451e-05 2093.08 273.561 5.03276 5.03874 -25.0484 -36.884 1.5837e+06 
206 -0.02945 8.83458e-05 2093.08 273.576 5.03309 5.03931 -25.9662 -38.1524 1.58898e+06 
207 -0.02935 8.8345e-05 2093.08 273.59 5.0333 5.03968 -26.7621 -39.3005 1.59396e+06 
208 -0.02925 8.83457e-05 2093.07 273.608 5.03366 5.04023 -27.7026 -40.5031 1.5991e+06 
209 -0.02915 8.8346e-05 2093.07 273.623 5.03395 5.04089 -28.5468 -42.0375 1.60444e+06 
210 -0.02905 8.83456e-05 2093.07 273.636 5.03417 5.04131 -29.3026 -43.0587 1.60912e+06 
211 -0.02895 8.83457e-05 2093.07 273.652 5.03448 5.04157 -30.1199 -44.3249 1.61514e+06 
212 -0.02885 8.8346e-05 2093.06 273.659 5.03462 5.04197 -30.7161 -45.1268 1.6182e+06 
213 -0.02875 8.83455e-05 2093.06 273.678 5.03493 5.04246 -31.7184 -46.7811 1.62514e+06 
214 -0.02865 8.8346e-05 2093.06 273.691 5.0352 5.04293 -32.4691 -47.9078 1.62995e+06 
215 -0.02855 8.83465e-05 2093.06 273.707 5.03553 5.04343 -33.4779 -49.1979 1.6356e+06 
216 -0.02845 8.83455e-05 2093.05 273.733 5.03596 5.04416 -34.8633 -51.0822 1.64363e+06 
217 -0.02835 8.83467e-05 2093.05 273.754 5.03641 5.04487 -36.0027 -52.8082 1.65088e+06 
218 -0.02825 8.8346e-05 2093.04 273.772 5.03669 5.04544 -37.0331 -54.2697 1.65708e+06 
219 -0.02815 8.83464e-05 2093.04 273.788 5.03701 5.04594 -37.9354 -55.8029 1.66292e+06 
220 -0.02805 8.83464e-05 2093.04 273.802 5.03727 5.04642 -38.7504 -57.1366 1.66801e+06 
221 -0.02795 8.83476e-05 2093.03 273.823 5.03772 5.0473 -39.9475 -59.1668 1.67574e+06 
222 -0.02785 8.83465e-05 2093.03 273.843 5.03803 5.04789 -41.2072 -61.0534 1.68385e+06 
223 -0.02775 8.83473e-05 2093.03 273.872 5.03861 5.04867 -42.653 -62.777 1.69187e+06 
224 -0.02765 8.83466e-05 2093.02 273.891 5.03892 5.04922 -43.9109 -64.6621 1.6997e+06 
234 -0.02665 8.83501e-05 2092.98 274.155 5.04397 5.05813 -58.8869 -86.8032 1.79233e+06 
226 -0.02745 8.83476e-05 2093.01 273.944 5.03994 5.05108 -46.8418 -69.0371 1.71752e+06 
227 -0.02735 8.83478e-05 2093.01 273.973 5.04049 5.05201 -48.4481 -71.4885 1.72748e+06 
228 -0.02725 8.83485e-05 2093 273.996 5.04096 5.05282 -49.8383 -73.3873 1.73556e+06 
229 -0.02715 8.83477e-05 2093 274.034 5.04162 5.054 -51.8822 -76.262 1.74792e+06 
230 -0.02705 8.83491e-05 2092.99 274.056 5.04209 5.05486 -53.2517 -78.4174 1.75611e+06 
231 -0.02695 8.83481e-05 2092.99 274.077 5.04243 5.05551 -54.3897 -80.2171 1.76395e+06 
232 -0.02685 8.83491e-05 2092.99 274.098 5.04286 5.05627 -55.6437 -82.1271 1.77275e+06 
233 -0.02675 8.8349e-05 2092.98 274.13 5.04345 5.05728 -57.2571 -84.4664 1.78199e+06 
235 -0.02655 8.835e-05 2092.97 274.186 5.04453 5.05908 -60.4588 -89.3987 1.8028e+06 
236 -0.02645 8.83488e-05 2092.97 274.223 5.04515 5.06027 -62.6448 -92.5692 1.81536e+06 
237 -0.02635 8.83505e-05 2092.95 274.261 5.04594 5.0616 -64.7406 -95.6944 1.82746e+06 
238 -0.02625 8.83506e-05 2092.95 274.289 5.04647 5.06264 -66.566 -98.6098 1.83934e+06 
239 -0.02615 8.8351e-05 2092.95 274.335 5.04734 5.0639 -68.9234 -101.773 1.85337e+06 
240 -0.02605 8.83505e-05 2092.94 274.371 5.04797 5.06499 -71.0376 -104.677 1.86582e+06 
241 -0.02595 8.83508e-05 2092.93 274.413 5.04876 5.06641 -73.4793 -108.316 1.88137e+06 
242 -0.02585 8.83521e-05 2092.92 274.455 5.04962 5.06775 -75.9039 -111.883 1.89581e+06 
243 -0.02575 8.83517e-05 2092.92 274.489 5.05022 5.06898 -77.8153 -114.977 1.90827e+06 
244 -0.02565 8.83524e-05 2092.91 274.526 5.05094 5.07015 -79.8545 -118.039 1.92127e+06 
245 -0.02555 8.83527e-05 2092.9 274.571 5.05178 5.07144 -82.4191 -121.369 1.93634e+06 
246 -0.02545 8.83522e-05 2092.89 274.617 5.05259 5.07294 -84.9993 -125.508 1.95283e+06 
247 -0.02535 8.83526e-05 2092.89 274.651 5.05324 5.07416 -86.8481 -128.33 1.9644e+06 
248 -0.02525 8.83534e-05 2092.88 274.702 5.05423 5.07577 -89.8153 -132.513 1.98254e+06 
249 -0.02515 8.83544e-05 2092.87 274.751 5.05519 5.07736 -92.6779 -136.806 2.00006e+06 
250 -0.02505 8.83538e-05 2092.86 274.808 5.0562 5.07902 -95.7556 -141.111 2.01863e+06 
267 -0.02335 8.83632e-05 2092.66 275.936 5.07749 5.11618 -159.655 -236.406 2.40959e+06 
257 -0.02435 8.83569e-05 2092.79 275.203 5.06364 5.09228 -118.2 -175.128 2.1565e+06 
258 -0.02425 8.83581e-05 2092.78 275.284 5.06521 5.09496 -122.687 -181.55 2.18181e+06 
259 -0.02415 8.83575e-05 2092.76 275.346 5.06631 5.09689 -126.355 -187.011 2.20531e+06 
260 -0.02405 8.83593e-05 2092.75 275.421 5.06779 5.09944 -130.459 -192.97 2.22924e+06 
261 -0.02395 8.8359e-05 2092.74 275.484 5.06893 5.10135 -134.049 -198.299 2.2524e+06 
262 -0.02385 8.83598e-05 2092.73 275.564 5.07046 5.104 -138.734 -204.999 2.2798e+06 
263 -0.02375 8.83611e-05 2092.72 275.624 5.07164 5.10588 -142.03 -210.032 2.30124e+06 
264 -0.02365 8.83603e-05 2092.7 275.686 5.07274 5.10796 -145.437 -215.411 2.32297e+06 
265 -0.02355 8.83612e-05 2092.69 275.774 5.0744 5.11089 -150.635 -223.048 2.35495e+06 
266 -0.02345 8.83616e-05 2092.68 275.861 5.07602 5.1136 -155.276 -229.808 2.38257e+06 
268 -0.02325 8.83635e-05 2092.64 276.036 5.07936 5.11957 -165.405 -244.739 2.44318e+06 
269 -0.02315 8.83637e-05 2092.63 276.128 5.08105 5.12276 -170.563 -252.795 2.47538e+06 
270 -0.02305 8.83652e-05 2092.61 276.209 5.08263 5.12553 -175.147 -259.835 2.50323e+06 
271 -0.02295 8.83654e-05 2092.59 276.312 5.08454 5.12885 -181.108 -268.597 2.54061e+06 
272 -0.02285 8.8366e-05 2092.57 276.419 5.08655 5.13226 -186.922 -276.92 2.5742e+06 
273 -0.02275 8.8368e-05 2092.55 276.536 5.08881 5.13623 -193.773 -286.839 2.61585e+06 
274 -0.02265 8.83678e-05 2092.54 276.638 5.09067 5.13949 -199.382 -295.391 2.65062e+06 
275 -0.02255 8.83694e-05 2092.52 276.75 5.09283 5.14314 -205.796 -304.626 2.6885e+06 
251 -0.02495 8.83545e-05 2092.85 274.858 5.05716 5.0809 -98.6678 -145.784 2.03631e+06 
252 -0.02485 8.83542e-05 2092.84 274.905 5.058 5.0825 -101.274 -149.88 2.05262e+06 
253 -0.02475 8.83556e-05 2092.83 274.973 5.05935 5.08459 -105.085 -155.128 2.07576e+06 
254 -0.02465 8.8356e-05 2092.82 275.024 5.06031 5.08633 -108.108 -159.667 2.09335e+06 
255 -0.02455 8.83556e-05 2092.81 275.091 5.06151 5.08856 -111.816 -165.453 2.11623e+06 
256 -0.02445 8.83568e-05 2092.8 275.137 5.06243 5.09006 -114.413 -169.277 2.13286e+06 
300 -0.02005 8.84014e-05 2091.75 281.002 5.17294 5.28386 -446.937 -664.321 4.15593e+06 
289 -0.02115 8.83847e-05 2092.16 278.754 5.13061 5.20907 -319.519 -472.806 3.37854e+06 
290 -0.02105 8.83847e-05 2092.12 278.958 5.13435 5.21557 -331.137 -489.559 3.44752e+06 
291 -0.02095 8.83873e-05 2092.09 279.112 5.13733 5.22093 -339.88 -503.517 3.50308e+06 
292 -0.02085 8.83885e-05 2092.06 279.276 5.14042 5.22629 -348.894 -517.202 3.56003e+06 
293 -0.02075 8.83895e-05 2092.03 279.477 5.14419 5.23305 -360.517 -534.533 3.63119e+06 
294 -0.02065 8.83916e-05 2091.99 279.68 5.14804 5.23988 -372.06 -551.785 3.70001e+06 
295 -0.02055 8.83925e-05 2091.95 279.911 5.15234 5.24765 -384.918 -571.129 3.77601e+06 
296 -0.02045 8.83948e-05 2091.92 280.104 5.15604 5.25407 -396.16 -588.22 3.84667e+06 
297 -0.02035 8.8395e-05 2091.88 280.317 5.15998 5.26081 -408.103 -605.631 3.91954e+06 
298 -0.02025 8.83976e-05 2091.84 280.536 5.16416 5.26841 -420.652 -624.955 3.99693e+06 
299 -0.02015 8.83989e-05 2091.8 280.768 5.1685 5.27599 -433.539 -644.142 4.07422e+06 
276 -0.02245 8.83703e-05 2092.49 276.867 5.09503 5.14699 -212.524 -314.681 2.73078e+06 
277 -0.02235 8.83709e-05 2092.47 277.001 5.09754 5.15131 -219.955 -325.203 2.77326e+06 
278 -0.02225 8.83715e-05 2092.46 277.091 5.09923 5.15418 -225.228 -333.495 2.80897e+06 
279 -0.02215 8.83726e-05 2092.43 277.214 5.10155 5.15823 -232.191 -343.999 2.85184e+06 
280 -0.02205 8.83736e-05 2092.41 277.361 5.10432 5.16321 -240.415 -356.219 2.90022e+06 
281 -0.02195 8.83749e-05 2092.38 277.49 5.10677 5.16764 -247.961 -367.857 2.94716e+06 
282 -0.02185 8.83755e-05 2092.36 277.617 5.10914 5.17177 -254.955 -378.074 2.98948e+06 
283 -0.02175 8.83769e-05 2092.33 277.772 5.11207 5.17675 -263.741 -390.668 3.0423e+06 
284 -0.02165 8.83783e-05 2092.31 277.915 5.11479 5.18148 -272.057 -403.055 3.09341e+06 
285 -0.02155 8.83796e-05 2092.28 278.092 5.11812 5.18702 -282.036 -416.954 3.15129e+06 
286 -0.02145 8.83797e-05 2092.25 278.23 5.12067 5.19158 -289.917 -429.147 3.20146e+06 
287 -0.02135 8.83818e-05 2092.23 278.38 5.12354 5.19666 -298.196 -441.65 3.25155e+06 
288 -0.02125 8.8383e-05 2092.19 278.553 5.12681 5.20232 -308.004 -456.249 3.31146e+06 
301 -0.01995 8.84026e-05 2091.71 281.246 5.17751 5.29212 -460.838 -685.244 4.24e+06 
321 -0.01795 8.84589e-05 2090.39 288.56 5.31554 5.53428 -874.793 -1299.92 6.73061e+06 
322 -0.01785 8.84632e-05 2090.3 289.107 5.32588 5.55254 -905.819 -1345.3 6.9123e+06 
323 -0.01775 8.84667e-05 2090.21 289.613 5.33541 5.56923 -934.147 -1387.44 7.08167e+06 
324 -0.01765 8.84711e-05 2090.12 290.115 5.34492 5.58598 -962.882 -1430.86 7.25894e+06 
325 -0.01755 8.84746e-05 2090.01 290.697 5.35586 5.60559 -995.648 -1479.73 7.45148e+06 
302 -0.01985 8.84052e-05 2091.66 281.527 5.18284 5.30125 -476.48 -707.886 4.3323e+06 
303 -0.01975 8.84077e-05 2091.61 281.796 5.18794 5.31027 -491.817 -730.586 4.42382e+06 
304 -0.01965 8.84089e-05 2091.55 282.113 5.19383 5.32078 -509.724 -756.837 4.52952e+06 
305 -0.01955 8.84119e-05 2091.5 282.393 5.19917 5.33028 -525.836 -781.181 4.6275e+06 
306 -0.01945 8.84134e-05 2091.45 282.693 5.20478 5.33952 -542.436 -805.014 4.72759e+06 
307 -0.01935 8.84163e-05 2091.39 283.008 5.21077 5.35055 -560.756 -832.989 4.83844e+06 
308 -0.01925 8.84186e-05 2091.34 283.298 5.21624 5.35976 -576.742 -856.691 4.93642e+06 
309 -0.01915 8.84209e-05 2091.28 283.646 5.22278 5.3714 -596.816 -886.456 5.05773e+06 
310 -0.01905 8.84238e-05 2091.22 283.999 5.22944 5.38317 -616.616 -915.702 5.1751e+06 
311 -0.01895 8.84269e-05 2091.16 284.334 5.2358 5.39425 -635.57 -943.925 5.29016e+06 
312 -0.01885 8.84288e-05 2091.1 284.67 5.24211 5.40499 -654.705 -972.244 5.40785e+06 
313 -0.01875 8.8431e-05 2091.02 285.058 5.24937 5.41822 -676.775 -1005.34 5.53932e+06 
314 -0.01865 8.84347e-05 2090.96 285.443 5.25669 5.43055 -698.231 -1036.73 5.66835e+06 
315 -0.01855 8.84376e-05 2090.88 285.83 5.26399 5.44393 -720.358 -1070.9 5.8038e+06 
316 -0.01845 8.84418e-05 2090.81 286.282 5.27256 5.45882 -745.848 -1107.78 5.95235e+06 
317 -0.01835 8.84446e-05 2090.73 286.692 5.28028 5.47228 -768.754 -1142.06 6.09185e+06 
318 -0.01825 8.84484e-05 2090.65 287.161 5.28914 5.4878 -795.869 -1181.87 6.2547e+06 
319 -0.01815 8.84514e-05 2090.57 287.617 5.29772 5.50259 -821.103 -1218.8 6.40423e+06 
320 -0.01805 8.84545e-05 2090.48 288.094 5.3067 5.51891 -848.412 -1260.31 6.56847e+06 
334 -0.01665 8.85216e-05 2088.92 296.705 5.46946 5.8061 -1335.61 -1985.15 9.4811e+06 
326 -0.01745 8.84793e-05 2089.91 291.277 5.36683 5.62474 -1028.54 -1528.29 7.64982e+06 
327 -0.01735 8.84846e-05 2089.8 291.874 5.37816 5.64492 -1062.24 -1578.7 7.84967e+06 
328 -0.01725 8.84891e-05 2089.69 292.449 5.38901 5.66429 -1094.84 -1628.33 8.04844e+06 
329 -0.01715 8.84936e-05 2089.56 293.159 5.40237 5.68766 -1134.98 -1686.67 8.28447e+06 
330 -0.01705 8.8499e-05 2089.44 293.816 5.41482 5.70987 -1172.08 -1742.33 8.50506e+06 
331 -0.01695 8.85051e-05 2089.32 294.521 5.42819 5.73336 -1212.09 -1801.26 8.74237e+06 
332 -0.01685 8.85092e-05 2089.19 295.211 5.44115 5.75627 -1251.3 -1859.75 8.97846e+06 
333 -0.01675 8.85152e-05 2089.07 295.932 5.45481 5.78019 -1291.64 -1919.81 9.21937e+06 
335 -0.01655 8.85272e-05 2088.78 297.498 5.48441 5.83269 -1380.92 -2052.67 9.75274e+06 
336 -0.01645 8.85328e-05 2088.63 298.339 5.50026 5.86056 -1427.9 -2121.76 1.00286e+07 
337 -0.01635 8.85402e-05 2088.48 299.165 5.51596 5.88801 -1474.65 -2191.11 1.03083e+07 
338 -0.01625 8.85473e-05 2088.32 300.066 5.53302 5.91816 -1525.78 -2266.73 1.06109e+07 
339 -0.01615 8.85526e-05 2088.16 300.917 5.54904 5.94685 -1573.77 -2339.42 1.09005e+07 
340 -0.01605 8.85609e-05 2087.99 301.827 5.56634 5.97784 -1625.24 -2417.03 1.12086e+07 
341 -0.01595 8.85682e-05 2087.81 302.859 5.58583 6.01245 -1683.46 -2502.8 1.15491e+07 