ITEM: TIMESTEP
20000
ITEM: NUMBER OF CELLS
800
ITEM: BOX BOUNDS os pp pp
-0.05 0.03
-0.001 0.001
-0.001 0.001
ITEM: CELLS id f_1[1] f_1[2] f_1[3] f_1[4] f_1[5] f_1[6] f_1[7] f_1[8] f_1[9] 
1 -0.04995 8.83417e-05 2093.17 273.112 5.02431 5.0233 -0.0881352 -0.161468 1.42712e+06 
2 -0.04985 8.83414e-05 2093.17 273.11 5.02425 5.02333 -0.0507861 -0.142784 1.42703e+06 
3 -0.04975 8.83408e-05 2093.17 273.11 5.02422 5.02338 -0.0872749 -0.230538 1.42715e+06 
4 -0.04965 8.83413e-05 2093.17 273.111 5.02427 5.02353 -0.092198 -0.228419 1.42725e+06 
5 -0.04955 8.8341e-05 2093.17 273.111 5.02425 5.02355 -0.1127 -0.297043 1.42734e+06 
6 -0.04945 8.83419e-05 2093.17 273.111 5.0243 5.02354 -0.0984593 -0.265758 1.42726e+06 
7 -0.04935 8.83418e-05 2093.17 273.111 5.02429 5.02357 -0.107095 -0.282413 1.42733e+06 
8 -0.04925 8.83403e-05 2093.17 273.111 5.02421 5.0235 -0.124344 -0.313682 1.42732e+06 
9 -0.04915 8.83416e-05 2093.17 273.113 5.02432 5.0236 -0.112272 -0.297264 1.4274e+06 
10 -0.04905 8.83417e-05 2093.17 273.11 5.02427 5.02353 -0.123018 -0.28108 1.42737e+06 
11 -0.04895 8.83415e-05 2093.17 273.111 5.02428 5.02355 -0.153316 -0.315499 1.42749e+06 
12 -0.04885 8.83405e-05 2093.17 273.115 5.0243 5.02357 -0.143923 -0.293856 1.42753e+06 
13 -0.04875 8.83417e-05 2093.17 273.112 5.0243 5.02359 -0.118244 -0.271966 1.42748e+06 
14 -0.04865 8.83411e-05 2093.17 273.114 5.02431 5.02364 -0.154522 -0.317361 1.42764e+06 
15 -0.04855 8.8342e-05 2093.17 273.111 5.0243 5.02367 -0.146673 -0.288803 1.42764e+06 
16 -0.04845 8.83415e-05 2093.17 273.114 5.02433 5.02369 -0.186196 -0.353298 1.42777e+06 
17 -0.04835 8.83411e-05 2093.17 273.111 5.02426 5.02359 -0.162868 -0.32616 1.42774e+06 
18 -0.04825 8.83413e-05 2093.17 273.113 5.02431 5.02367 -0.178363 -0.372206 1.42782e+06 
19 -0.04815 8.83409e-05 2093.17 273.112 5.02426 5.02361 -0.172653 -0.385379 1.42781e+06 
20 -0.04805 8.83414e-05 2093.17 273.114 5.02433 5.02372 -0.185783 -0.412793 1.42788e+06 
21 -0.04795 8.83419e-05 2093.17 273.113 5.02434 5.0237 -0.190209 -0.372282 1.42797e+06 
22 -0.04785 8.83412e-05 2093.17 273.113 5.0243 5.02362 -0.203149 -0.44281 1.42791e+06 
23 -0.04775 8.83409e-05 2093.17 273.111 5.02425 5.02362 -0.203841 -0.433522 1.42799e+06 
24 -0.04765 8.83415e-05 2093.17 273.114 5.02434 5.02364 -0.193204 -0.408769 1.428e+06 
25 -0.04755 8.8341e-05 2093.17 273.114 5.0243 5.02364 -0.229163 -0.47451 1.42821e+06 
34 -0.04665 8.8341e-05 2093.17 273.113 5.02429 5.02366 -0.316293 -0.574 1.42858e+06 
33 -0.04675 8.83418e-05 2093.17 273.115 5.02437 5.02374 -0.325492 -0.581408 1.42867e+06 
35 -0.04655 8.83413e-05 2093.17 273.117 5.02437 5.02381 -0.350966 -0.628382 1.42881e+06 
36 -0.04645 8.83417e-05 2093.17 273.115 5.02437 5.02379 -0.304627 -0.569482 1.4286e+06 
37 -0.04635 8.83407e-05 2093.17 273.115 5.0243 5.02373 -0.358699 -0.647854 1.42879e+06 
38 -0.04625 8.83414e-05 2093.17 273.117 5.02438 5.02377 -0.32346 -0.589105 1.42874e+06 
39 -0.04615 8.83413e-05 2093.17 273.117 5.02438 5.02391 -0.360857 -0.6589 1.42897e+06 
40 -0.04605 8.83414e-05 2093.17 273.115 5.02435 5.0239 -0.34884 -0.643112 1.42888e+06 
41 -0.04595 8.83414e-05 2093.17 273.115 5.02435 5.0239 -0.357901 -0.687412 1.4289e+06 
42 -0.04585 8.8341e-05 2093.17 273.115 5.02432 5.02389 -0.367495 -0.710906 1.429e+06 
43 -0.04575 8.83416e-05 2093.17 273.116 5.02437 5.02393 -0.355735 -0.705191 1.42898e+06 
44 -0.04565 8.8341e-05 2093.17 273.117 5.02435 5.02395 -0.326871 -0.659556 1.42906e+06 
45 -0.04555 8.83415e-05 2093.17 273.115 5.02435 5.02399 -0.35136 -0.692416 1.42909e+06 
46 -0.04545 8.8341e-05 2093.17 273.115 5.02433 5.02397 -0.390203 -0.727782 1.42916e+06 
47 -0.04535 8.83417e-05 2093.17 273.115 5.02436 5.0241 -0.385076 -0.714586 1.42932e+06 
48 -0.04525 8.83407e-05 2093.17 273.117 5.02434 5.02403 -0.386878 -0.734766 1.42929e+06 
49 -0.04515 8.83422e-05 2093.17 273.118 5.02444 5.02405 -0.383909 -0.710242 1.42932e+06 
50 -0.04505 8.83412e-05 2093.17 273.115 5.02434 5.02401 -0.388462 -0.723491 1.42935e+06 
26 -0.04745 8.83416e-05 2093.17 273.112 5.0243 5.02364 -0.274569 -0.526543 1.42827e+06 
27 -0.04735 8.83413e-05 2093.17 273.115 5.02434 5.02369 -0.291909 -0.514006 1.42839e+06 
28 -0.04725 8.83418e-05 2093.17 273.115 5.02437 5.02368 -0.29091 -0.530999 1.42846e+06 
29 -0.04715 8.83417e-05 2093.17 273.113 5.02432 5.02362 -0.271903 -0.498289 1.4284e+06 
30 -0.04705 8.83409e-05 2093.17 273.116 5.02434 5.02365 -0.331441 -0.582566 1.42858e+06 
31 -0.04695 8.8341e-05 2093.17 273.111 5.02426 5.02359 -0.297666 -0.516926 1.42858e+06 
32 -0.04685 8.8341e-05 2093.17 273.116 5.02434 5.02373 -0.324995 -0.548764 1.42861e+06 
67 -0.04335 8.83417e-05 2093.17 273.121 5.02447 5.02429 -0.629228 -1.02896 1.43088e+06 
65 -0.04355 8.83423e-05 2093.17 273.121 5.0245 5.02432 -0.674303 -1.12746 1.43112e+06 
66 -0.04345 8.83416e-05 2093.17 273.123 5.0245 5.02437 -0.642989 -1.04357 1.43095e+06 
68 -0.04325 8.8341e-05 2093.17 273.122 5.02446 5.02422 -0.649538 -1.0667 1.43097e+06 
69 -0.04315 8.8341e-05 2093.17 273.12 5.02442 5.02423 -0.661806 -1.07949 1.43094e+06 
70 -0.04305 8.83413e-05 2093.17 273.121 5.02446 5.02421 -0.669482 -1.04988 1.43112e+06 
71 -0.04295 8.83411e-05 2093.17 273.122 5.02446 5.02432 -0.702956 -1.09585 1.43125e+06 
72 -0.04285 8.8342e-05 2093.17 273.125 5.02457 5.02438 -0.690455 -1.09577 1.43134e+06 
73 -0.04275 8.83415e-05 2093.17 273.122 5.02449 5.02428 -0.721158 -1.10323 1.43146e+06 
74 -0.04265 8.83407e-05 2093.17 273.123 5.02445 5.02429 -0.729996 -1.15113 1.43157e+06 
75 -0.04255 8.83415e-05 2093.17 273.123 5.0245 5.02428 -0.812446 -1.23596 1.43188e+06 
51 -0.04495 8.83416e-05 2093.17 273.117 5.0244 5.0241 -0.378984 -0.713749 1.42936e+06 
52 -0.04485 8.83409e-05 2093.17 273.117 5.02435 5.024 -0.426809 -0.797407 1.42955e+06 
53 -0.04475 8.83419e-05 2093.17 273.12 5.02447 5.0242 -0.435658 -0.795191 1.42961e+06 
54 -0.04465 8.83403e-05 2093.17 273.117 5.02432 5.02409 -0.500203 -0.886767 1.42992e+06 
55 -0.04455 8.83424e-05 2093.17 273.117 5.02445 5.02424 -0.497422 -0.873193 1.42996e+06 
56 -0.04445 8.8341e-05 2093.17 273.12 5.02442 5.02422 -0.480704 -0.862831 1.42995e+06 
57 -0.04435 8.83421e-05 2093.17 273.117 5.02442 5.02429 -0.511629 -0.888872 1.43015e+06 
58 -0.04425 8.83414e-05 2093.17 273.122 5.02447 5.02428 -0.530113 -0.898897 1.43025e+06 
59 -0.04415 8.83418e-05 2093.17 273.119 5.02445 5.02428 -0.557577 -0.956027 1.43047e+06 
60 -0.04405 8.83403e-05 2093.17 273.119 5.02437 5.02425 -0.553254 -0.905852 1.43039e+06 
61 -0.04395 8.83419e-05 2093.17 273.121 5.02448 5.02424 -0.618304 -0.994689 1.43073e+06 
62 -0.04385 8.83419e-05 2093.17 273.122 5.02451 5.0243 -0.614486 -1.04109 1.43066e+06 
63 -0.04375 8.83411e-05 2093.17 273.119 5.02441 5.02426 -0.588546 -1.0053 1.43074e+06 
64 -0.04365 8.83413e-05 2093.17 273.122 5.02447 5.02433 -0.621427 -1.03601 1.43078e+06 
100 -0.04005 8.83419e-05 2093.17 273.135 5.02474 5.02466 -1.46863 -2.20536 1.43619e+06 
97 -0.04035 8.83413e-05 2093.17 273.133 5.02467 5.02455 -1.264 -1.90159 1.43512e+06 
98 -0.04025 8.83418e-05 2093.16 273.134 5.02472 5.02461 -1.34086 -1.99248 1.43559e+06 
99 -0.04015 8.8341e-05 2093.17 273.135 5.02469 5.02455 -1.38214 -2.05151 1.43575e+06 
76 -0.04245 8.83416e-05 2093.17 273.127 5.02458 5.02441 -0.869657 -1.31475 1.43232e+06 
77 -0.04235 8.83414e-05 2093.17 273.127 5.02457 5.0245 -0.892602 -1.36972 1.43257e+06 
78 -0.04225 8.83416e-05 2093.17 273.125 5.02454 5.02442 -0.828712 -1.30675 1.43233e+06 
79 -0.04215 8.83407e-05 2093.17 273.126 5.02452 5.02439 -0.852411 -1.35366 1.43235e+06 
80 -0.04205 8.83419e-05 2093.17 273.124 5.02454 5.02433 -0.807988 -1.30886 1.43222e+06 
81 -0.04195 8.83414e-05 2093.17 273.126 5.02454 5.02438 -0.90524 -1.39971 1.43267e+06 
82 -0.04185 8.83408e-05 2093.17 273.126 5.02451 5.02442 -0.899081 -1.4275 1.43271e+06 
83 -0.04175 8.83408e-05 2093.17 273.128 5.02455 5.02448 -0.954158 -1.50415 1.43293e+06 
84 -0.04165 8.83423e-05 2093.17 273.126 5.0246 5.02447 -0.9848 -1.54569 1.43312e+06 
85 -0.04155 8.83414e-05 2093.17 273.127 5.02456 5.02446 -0.999356 -1.54542 1.43321e+06 
86 -0.04145 8.83403e-05 2093.17 273.13 5.02456 5.02446 -1.0809 -1.65013 1.4337e+06 
87 -0.04135 8.83413e-05 2093.17 273.128 5.02458 5.0245 -1.07175 -1.66622 1.4336e+06 
88 -0.04125 8.83419e-05 2093.17 273.127 5.0246 5.02452 -1.02284 -1.63371 1.43362e+06 
89 -0.04115 8.83413e-05 2093.17 273.13 5.02462 5.02443 -1.07429 -1.65972 1.43375e+06 
90 -0.04105 8.83408e-05 2093.17 273.128 5.02456 5.02447 -1.09455 -1.68411 1.43384e+06 
91 -0.04095 8.83417e-05 2093.17 273.131 5.02465 5.02446 -1.12306 -1.71476 1.43407e+06 
92 -0.04085 8.83416e-05 2093.17 273.13 5.02463 5.02443 -1.20486 -1.82594 1.43447e+06 
93 -0.04075 8.83416e-05 2093.17 273.131 5.02466 5.02451 -1.19556 -1.77167 1.43448e+06 
94 -0.04065 8.83407e-05 2093.17 273.131 5.02459 5.02451 -1.1989 -1.81136 1.43472e+06 
95 -0.04055 8.83419e-05 2093.16 273.132 5.02468 5.02454 -1.16321 -1.74621 1.43448e+06 
96 -0.04045 8.83423e-05 2093.17 273.13 5.02467 5.02456 -1.23252 -1.84388 1.4348e+06 
101 -0.03995 8.83415e-05 2093.17 273.137 5.02475 5.02475 -1.42505 -2.15036 1.43603e+06 
102 -0.03985 8.83419e-05 2093.17 273.134 5.02472 5.02471 -1.43447 -2.16892 1.43617e+06 
103 -0.03975 8.83413e-05 2093.17 273.136 5.02473 5.02466 -1.42868 -2.1527 1.43598e+06 
104 -0.03965 8.8342e-05 2093.16 273.136 5.02477 5.02476 -1.46734 -2.22526 1.43638e+06 
105 -0.03955 8.83421e-05 2093.16 273.138 5.0248 5.02484 -1.62406 -2.40592 1.43709e+06 
106 -0.03945 8.83413e-05 2093.16 273.14 5.0248 5.02476 -1.55709 -2.33535 1.43684e+06 
107 -0.03935 8.83419e-05 2093.17 273.137 5.02477 5.02477 -1.56088 -2.35859 1.43684e+06 
108 -0.03925 8.83417e-05 2093.16 273.138 5.02479 5.02481 -1.62276 -2.48585 1.43719e+06 
109 -0.03915 8.83414e-05 2093.16 273.141 5.02482 5.02491 -1.76868 -2.73129 1.43803e+06 
110 -0.03905 8.83418e-05 2093.16 273.143 5.02489 5.02497 -1.86734 -2.83777 1.43854e+06 
111 -0.03895 8.8342e-05 2093.16 273.144 5.02492 5.025 -1.88442 -2.86218 1.43847e+06 
112 -0.03885 8.83416e-05 2093.16 273.144 5.02489 5.02496 -1.94161 -2.95796 1.43903e+06 
113 -0.03875 8.83411e-05 2093.16 273.143 5.02485 5.02487 -1.86181 -2.84604 1.43851e+06 
114 -0.03865 8.83421e-05 2093.16 273.144 5.02492 5.02498 -1.97865 -3.00931 1.43923e+06 
115 -0.03855 8.83415e-05 2093.16 273.144 5.02488 5.02497 -1.96339 -2.98279 1.4391e+06 
116 -0.03845 8.83415e-05 2093.16 273.148 5.02496 5.02504 -2.1197 -3.17192 1.44005e+06 
117 -0.03835 8.83416e-05 2093.16 273.15 5.025 5.02519 -2.23978 -3.35601 1.44083e+06 
118 -0.03825 8.83417e-05 2093.16 273.148 5.02498 5.02514 -2.28933 -3.43258 1.44094e+06 
119 -0.03815 8.83407e-05 2093.16 273.152 5.02499 5.02523 -2.34734 -3.55246 1.44138e+06 
120 -0.03805 8.83422e-05 2093.16 273.149 5.02501 5.02516 -2.25889 -3.43796 1.4412e+06 
121 -0.03795 8.83413e-05 2093.16 273.152 5.02502 5.02518 -2.3286 -3.51107 1.44153e+06 
122 -0.03785 8.83412e-05 2093.16 273.152 5.02501 5.02509 -2.32247 -3.51409 1.44148e+06 
123 -0.03775 8.83417e-05 2093.16 273.151 5.02503 5.02513 -2.39174 -3.59203 1.44216e+06 
124 -0.03765 8.83413e-05 2093.16 273.153 5.02504 5.02521 -2.52836 -3.80442 1.44275e+06 
125 -0.03755 8.8342e-05 2093.16 273.156 5.02513 5.02523 -2.5893 -3.822 1.44305e+06 
134 -0.03665 8.83421e-05 2093.16 273.168 5.02537 5.02578 -3.35662 -4.96541 1.44786e+06 
129 -0.03715 8.83422e-05 2093.16 273.16 5.02522 5.0255 -2.8478 -4.23784 1.44496e+06 
130 -0.03705 8.83414e-05 2093.16 273.163 5.02524 5.02548 -2.92938 -4.36048 1.44526e+06 
131 -0.03695 8.83415e-05 2093.16 273.162 5.02522 5.02557 -3.04071 -4.55794 1.44611e+06 
132 -0.03685 8.83425e-05 2093.16 273.166 5.02534 5.02575 -3.16103 -4.69706 1.44663e+06 
133 -0.03675 8.83407e-05 2093.16 273.166 5.02525 5.02564 -3.22874 -4.81737 1.44713e+06 
135 -0.03655 8.83419e-05 2093.16 273.173 5.02545 5.02594 -3.45441 -5.12379 1.44861e+06 
136 -0.03645 8.83423e-05 2093.16 273.171 5.02543 5.02596 -3.52518 -5.2506 1.44915e+06 
137 -0.03635 8.83413e-05 2093.16 273.171 5.02537 5.0259 -3.56191 -5.32027 1.44943e+06 
138 -0.03625 8.83426e-05 2093.16 273.176 5.02554 5.02602 -3.65619 -5.43894 1.44998e+06 
139 -0.03615 8.83417e-05 2093.16 273.173 5.02543 5.02601 -3.74902 -5.60736 1.45068e+06 
140 -0.03605 8.83417e-05 2093.16 273.179 5.02555 5.02615 -3.85763 -5.74484 1.45154e+06 
141 -0.03595 8.83424e-05 2093.16 273.18 5.02559 5.02623 -4.05372 -5.99994 1.45228e+06 
142 -0.03585 8.83422e-05 2093.16 273.18 5.02558 5.02622 -4.19266 -6.22675 1.4533e+06 
143 -0.03575 8.83414e-05 2093.16 273.187 5.02567 5.02644 -4.23587 -6.31236 1.45387e+06 
144 -0.03565 8.83427e-05 2093.16 273.185 5.0257 5.02657 -4.34966 -6.50394 1.45425e+06 
145 -0.03555 8.83424e-05 2093.16 273.19 5.02579 5.02667 -4.61461 -6.86976 1.45562e+06 
146 -0.03545 8.83415e-05 2093.15 273.195 5.02582 5.0268 -4.81132 -7.15388 1.45682e+06 
147 -0.03535 8.8342e-05 2093.15 273.193 5.02582 5.02678 -4.82411 -7.1694 1.45717e+06 
148 -0.03525 8.8342e-05 2093.15 273.193 5.02581 5.02678 -4.90716 -7.312 1.4578e+06 
149 -0.03515 8.83423e-05 2093.16 273.199 5.02595 5.02689 -5.01495 -7.45681 1.45852e+06 
150 -0.03505 8.83418e-05 2093.15 273.202 5.02597 5.02695 -5.26416 -7.73127 1.4599e+06 
126 -0.03745 8.83416e-05 2093.16 273.156 5.02511 5.02529 -2.58017 -3.82363 1.44317e+06 
127 -0.03735 8.83419e-05 2093.16 273.16 5.02521 5.02537 -2.79498 -4.13773 1.4444e+06 
128 -0.03725 8.83412e-05 2093.16 273.16 5.02516 5.02542 -2.84247 -4.18197 1.44461e+06 
167 -0.03335 8.83411e-05 2093.14 273.254 5.0269 5.02864 -8.35846 -12.199 1.47968e+06 
161 -0.03395 8.83423e-05 2093.15 273.229 5.02649 5.02793 -6.8986 -10.1952 1.47087e+06 
162 -0.03385 8.83424e-05 2093.15 273.232 5.02655 5.02798 -7.06028 -10.3859 1.47168e+06 
163 -0.03375 8.83416e-05 2093.15 273.238 5.02662 5.02816 -7.396 -10.8359 1.47375e+06 
164 -0.03365 8.8342e-05 2093.14 273.24 5.02668 5.02825 -7.52176 -11.1035 1.4745e+06 
165 -0.03355 8.83427e-05 2093.15 273.246 5.02682 5.02844 -7.83097 -11.4574 1.47643e+06 
166 -0.03345 8.83427e-05 2093.14 273.253 5.02696 5.02861 -8.20592 -11.9532 1.47853e+06 
168 -0.03325 8.83435e-05 2093.14 273.26 5.02713 5.0289 -8.57055 -12.5669 1.48106e+06 
169 -0.03315 8.8342e-05 2093.14 273.266 5.02715 5.02904 -8.91645 -13.1025 1.48325e+06 
170 -0.03305 8.83421e-05 2093.14 273.267 5.02718 5.02916 -9.05932 -13.2947 1.48419e+06 
171 -0.03295 8.83421e-05 2093.14 273.275 5.02733 5.02947 -9.48529 -13.8856 1.48655e+06 
172 -0.03285 8.83436e-05 2093.14 273.277 5.02746 5.02957 -9.50126 -13.9889 1.48732e+06 
173 -0.03275 8.83421e-05 2093.14 273.279 5.0274 5.02958 -9.73353 -14.3267 1.48891e+06 
174 -0.03265 8.83424e-05 2093.14 273.283 5.02749 5.02962 -9.96186 -14.6973 1.48998e+06 
175 -0.03255 8.83427e-05 2093.14 273.285 5.02755 5.02993 -10.1567 -15.1277 1.49152e+06 
151 -0.03495 8.83425e-05 2093.15 273.2 5.02597 5.02697 -5.27829 -7.75558 1.4601e+06 
152 -0.03485 8.83418e-05 2093.15 273.207 5.02606 5.02708 -5.52214 -8.05791 1.46149e+06 
153 -0.03475 8.83429e-05 2093.15 273.206 5.02611 5.02718 -5.57781 -8.16647 1.462e+06 
154 -0.03465 8.83424e-05 2093.15 273.209 5.02614 5.02725 -5.65162 -8.42051 1.46302e+06 
155 -0.03455 8.83418e-05 2093.15 273.209 5.0261 5.02717 -5.68425 -8.45765 1.46314e+06 
156 -0.03445 8.83426e-05 2093.15 273.213 5.02623 5.02732 -5.86364 -8.73395 1.46448e+06 
157 -0.03435 8.83425e-05 2093.15 273.216 5.02627 5.02755 -6.09639 -9.07711 1.46578e+06 
158 -0.03425 8.83418e-05 2093.15 273.217 5.02624 5.02753 -6.2256 -9.21589 1.46671e+06 
159 -0.03415 8.83429e-05 2093.15 273.221 5.02638 5.02768 -6.44439 -9.506 1.46802e+06 
160 -0.03405 8.83421e-05 2093.15 273.228 5.02647 5.02787 -6.6544 -9.82411 1.469e+06 
200 -0.03005 8.83447e-05 2093.1 273.491 5.03145 5.0366 -21.7697 -32.2708 1.56363e+06 
193 -0.03075 8.83437e-05 2093.11 273.412 5.02995 5.03395 -17.3069 -25.5663 1.5365e+06 
194 -0.03065 8.83438e-05 2093.11 273.423 5.03016 5.03438 -17.8285 -26.3952 1.53956e+06 
195 -0.03055 8.83448e-05 2093.11 273.434 5.03042 5.0348 -18.5271 -27.5998 1.54371e+06 
196 -0.03045 8.83445e-05 2093.11 273.446 5.03062 5.03521 -19.2407 -28.4992 1.54771e+06 
197 -0.03035 8.83448e-05 2093.11 273.463 5.03093 5.03569 -20.169 -29.7226 1.55283e+06 
198 -0.03025 8.83441e-05 2093.1 273.47 5.03103 5.03587 -20.5224 -30.3512 1.55573e+06 
199 -0.03015 8.83448e-05 2093.1 273.483 5.03131 5.0364 -21.3835 -31.6379 1.56064e+06 
176 -0.03245 8.83424e-05 2093.14 273.295 5.02771 5.03022 -10.5844 -15.7106 1.49394e+06 
177 -0.03235 8.8343e-05 2093.13 273.296 5.02777 5.03015 -10.6433 -15.7689 1.49475e+06 
178 -0.03225 8.83421e-05 2093.13 273.306 5.02791 5.03039 -11.1667 -16.4257 1.4977e+06 
179 -0.03215 8.8344e-05 2093.13 273.311 5.0281 5.03067 -11.6403 -17.1475 1.50091e+06 
180 -0.03205 8.83426e-05 2093.13 273.319 5.02817 5.03081 -12.0019 -17.516 1.5023e+06 
181 -0.03195 8.83428e-05 2093.13 273.332 5.02841 5.03125 -12.6129 -18.4613 1.5062e+06 
182 -0.03185 8.83433e-05 2093.13 273.339 5.02858 5.03154 -13.0528 -19.0573 1.50863e+06 
183 -0.03175 8.83439e-05 2093.13 273.342 5.02868 5.03176 -13.4435 -19.6865 1.5115e+06 
184 -0.03165 8.83431e-05 2093.12 273.354 5.02883 5.0321 -13.8922 -20.2328 1.51388e+06 
185 -0.03155 8.83427e-05 2093.12 273.36 5.02892 5.03229 -14.2873 -20.8967 1.51636e+06 
186 -0.03145 8.83442e-05 2093.12 273.367 5.02915 5.03261 -14.7567 -21.6919 1.51946e+06 
187 -0.03135 8.83438e-05 2093.12 273.378 5.02931 5.03292 -15.2146 -22.3856 1.52193e+06 
188 -0.03125 8.83431e-05 2093.12 273.378 5.02929 5.03287 -15.33 -22.4977 1.52353e+06 
189 -0.03115 8.83442e-05 2093.12 273.383 5.02944 5.03315 -15.6698 -23.1022 1.52592e+06 
190 -0.03105 8.83436e-05 2093.12 273.391 5.02955 5.03329 -15.9814 -23.5752 1.5278e+06 
191 -0.03095 8.8344e-05 2093.11 273.399 5.02973 5.03358 -16.6033 -24.3519 1.53143e+06 
192 -0.03085 8.83442e-05 2093.12 273.407 5.02988 5.03381 -16.8606 -24.9354 1.53357e+06 
201 -0.02995 8.83446e-05 2093.1 273.506 5.03172 5.03722 -22.666 -33.5069 1.56867e+06 
225 -0.02755 8.8348e-05 2093.02 273.916 5.03945 5.05066 -45.9912 -68.0366 1.71346e+06 
202 -0.02985 8.83452e-05 2093.09 273.521 5.03204 5.0375 -23.4139 -34.5283 1.57324e+06 
203 -0.02975 8.83445e-05 2093.09 273.535 5.03226 5.03799 -24.1832 -35.5356 1.5777e+06 
204 -0.02965 8.83455e-05 2093.09 273.547 5.03252 5.03838 -25.0447 -36.8289 1.58271e+06 
205 -0.02955 8.83446e-05 2093.09 273.564 5.03279 5.03884 -25.8976 -38.0299 1.58808e+06 
206 -0.02945 8.83449e-05 2093.09 273.575 5.03302 5.03922 -26.4406 -38.8403 1.59164e+06 
207 -0.02935 8.83455e-05 2093.08 273.591 5.03333 5.03974 -27.4449 -40.1516 1.59771e+06 
208 -0.02925 8.83451e-05 2093.08 273.604 5.03354 5.04018 -28.1671 -41.282 1.60203e+06 
209 -0.02915 8.83449e-05 2093.08 273.619 5.03382 5.04076 -28.9858 -42.617 1.6074e+06 
210 -0.02905 8.83459e-05 2093.07 273.632 5.03411 5.04127 -29.905 -43.861 1.61307e+06 
211 -0.02895 8.83453e-05 2093.07 273.654 5.03448 5.0419 -30.9032 -45.3944 1.61889e+06 
212 -0.02885 8.83451e-05 2093.07 273.669 5.03475 5.04249 -31.9715 -46.8315 1.62546e+06 
213 -0.02875 8.83468e-05 2093.06 273.69 5.03523 5.04311 -32.9919 -48.2545 1.63137e+06 
214 -0.02865 8.83453e-05 2093.06 273.709 5.0355 5.04369 -34.1529 -49.9398 1.6385e+06 
215 -0.02855 8.83476e-05 2093.06 273.727 5.03596 5.0444 -35.1028 -51.5222 1.64458e+06 
216 -0.02845 8.83455e-05 2093.05 273.746 5.0362 5.04502 -36.2478 -53.2411 1.65142e+06 
217 -0.02835 8.83469e-05 2093.05 273.752 5.03637 5.04508 -36.5037 -53.6435 1.654e+06 
218 -0.02825 8.83468e-05 2093.05 273.766 5.03662 5.04565 -37.3808 -55.1491 1.65992e+06 
219 -0.02815 8.83462e-05 2093.05 273.789 5.03701 5.04646 -38.5263 -57.0306 1.66754e+06 
220 -0.02805 8.8347e-05 2093.04 273.813 5.03751 5.04715 -40.0511 -58.9949 1.67587e+06 
221 -0.02795 8.83468e-05 2093.04 273.837 5.03795 5.04805 -41.4121 -61.0423 1.68373e+06 
222 -0.02785 8.8347e-05 2093.03 273.853 5.03824 5.04861 -42.2468 -62.5262 1.68985e+06 
223 -0.02775 8.8348e-05 2093.03 273.871 5.03864 5.04927 -43.3817 -64.2629 1.69708e+06 
224 -0.02765 8.83474e-05 2093.03 273.893 5.039 5.04988 -44.5267 -65.8995 1.70433e+06 
234 -0.02665 8.83495e-05 2092.98 274.166 5.04415 5.05862 -59.9541 -88.6957 1.79941e+06 
226 -0.02745 8.83467e-05 2093.02 273.948 5.03998 5.05142 -47.5549 -70.0631 1.72222e+06 
227 -0.02735 8.83487e-05 2093.01 273.971 5.04052 5.05243 -49.1404 -72.6137 1.73235e+06 
228 -0.02725 8.83478e-05 2093.01 273.998 5.04096 5.05313 -50.4559 -74.4929 1.74071e+06 
229 -0.02715 8.83489e-05 2093.01 274.02 5.04143 5.05399 -51.8956 -76.7679 1.74963e+06 
230 -0.02705 8.83483e-05 2093 274.053 5.042 5.05497 -53.7016 -79.3108 1.76033e+06 
231 -0.02695 8.83482e-05 2093 274.086 5.04259 5.05584 -55.5199 -81.6588 1.77118e+06 
232 -0.02685 8.83492e-05 2092.99 274.112 5.04313 5.05687 -56.9227 -84.026 1.77993e+06 
233 -0.02675 8.83497e-05 2092.99 274.131 5.04351 5.05757 -58.0338 -85.8569 1.78837e+06 
235 -0.02655 8.83498e-05 2092.98 274.196 5.04472 5.0597 -61.9599 -91.703 1.81243e+06 
236 -0.02645 8.83499e-05 2092.97 274.237 5.04547 5.06094 -64.1405 -94.612 1.82486e+06 
237 -0.02635 8.835e-05 2092.97 274.266 5.046 5.06184 -65.6101 -96.9817 1.83431e+06 
238 -0.02625 8.8351e-05 2092.96 274.311 5.04689 5.06346 -68.3047 -101.038 1.85052e+06 
239 -0.02615 8.83506e-05 2092.95 274.341 5.04743 5.06452 -70.03 -103.757 1.86083e+06 
240 -0.02605 8.8351e-05 2092.94 274.37 5.04799 5.06552 -71.6454 -106.536 1.87248e+06 
241 -0.02595 8.83513e-05 2092.94 274.416 5.04885 5.06695 -74.2646 -110.072 1.88706e+06 
242 -0.02585 8.83516e-05 2092.93 274.452 5.04952 5.06804 -76.2137 -112.997 1.89933e+06 
243 -0.02575 8.83519e-05 2092.92 274.495 5.05033 5.06944 -78.8145 -116.711 1.91558e+06 
244 -0.02565 8.83519e-05 2092.92 274.525 5.05089 5.07024 -80.3273 -119.019 1.92605e+06 
245 -0.02555 8.83525e-05 2092.91 274.575 5.05184 5.07183 -83.117 -122.859 1.94172e+06 
246 -0.02545 8.83532e-05 2092.9 274.622 5.05275 5.07351 -86.0582 -127.337 1.96085e+06 
247 -0.02535 8.8353e-05 2092.89 274.665 5.05353 5.07498 -88.2289 -130.92 1.97362e+06 
248 -0.02525 8.83534e-05 2092.88 274.709 5.05436 5.07636 -90.9892 -134.895 1.99146e+06 
249 -0.02515 8.83542e-05 2092.88 274.754 5.05523 5.07775 -93.3109 -138.263 2.00605e+06 
250 -0.02505 8.83535e-05 2092.87 274.806 5.05616 5.07944 -96.2791 -142.592 2.02362e+06 
267 -0.02335 8.83631e-05 2092.66 275.966 5.07805 5.11757 -162.136 -240.33 2.42584e+06 
257 -0.02435 8.83573e-05 2092.8 275.213 5.06385 5.09272 -119.491 -176.751 2.16535e+06 
258 -0.02425 8.8358e-05 2092.78 275.292 5.06535 5.0953 -123.828 -182.992 2.19122e+06 
259 -0.02415 8.83583e-05 2092.77 275.354 5.06651 5.09747 -127.525 -188.791 2.2138e+06 
260 -0.02405 8.83582e-05 2092.76 275.419 5.0677 5.09953 -131.139 -194.092 2.2363e+06 
261 -0.02395 8.83598e-05 2092.75 275.487 5.06904 5.10173 -135.007 -199.891 2.26015e+06 
262 -0.02385 8.83593e-05 2092.73 275.571 5.07057 5.10447 -139.85 -206.791 2.28877e+06 
263 -0.02375 8.83606e-05 2092.72 275.648 5.07205 5.10691 -143.927 -212.872 2.31381e+06 
264 -0.02365 8.83606e-05 2092.7 275.727 5.0735 5.1095 -148.593 -219.74 2.34209e+06 
265 -0.02355 8.83616e-05 2092.69 275.825 5.07537 5.11277 -154.157 -227.635 2.3742e+06 
266 -0.02345 8.83627e-05 2092.67 275.89 5.07661 5.11515 -157.913 -234.102 2.39977e+06 
268 -0.02325 8.83631e-05 2092.64 276.066 5.07989 5.12042 -167.719 -247.81 2.45809e+06 
269 -0.02315 8.83643e-05 2092.63 276.162 5.08172 5.1236 -173.217 -255.954 2.49163e+06 
270 -0.02305 8.83656e-05 2092.61 276.25 5.08342 5.12684 -178.422 -264.167 2.52479e+06 
271 -0.02295 8.83652e-05 2092.6 276.335 5.08495 5.12939 -182.931 -270.854 2.55247e+06 
272 -0.02285 8.83665e-05 2092.58 276.437 5.08691 5.13292 -188.969 -279.908 2.58935e+06 
273 -0.02275 8.83669e-05 2092.56 276.554 5.08907 5.1366 -195.466 -289.209 2.62774e+06 
274 -0.02265 8.83683e-05 2092.54 276.666 5.09123 5.14028 -201.795 -298.478 2.66578e+06 
275 -0.02255 8.83687e-05 2092.52 276.771 5.09317 5.14384 -207.727 -307.457 2.7022e+06 
251 -0.02495 8.8355e-05 2092.86 274.86 5.05723 5.0813 -99.6763 -147.531 2.04415e+06 
252 -0.02485 8.83544e-05 2092.85 274.914 5.05819 5.08296 -102.366 -151.596 2.06072e+06 
253 -0.02475 8.83549e-05 2092.84 274.972 5.05927 5.08502 -105.881 -156.878 2.08226e+06 
254 -0.02465 8.83565e-05 2092.83 275.032 5.06047 5.08678 -109.058 -161.24 2.10127e+06 
255 -0.02455 8.83561e-05 2092.82 275.085 5.06144 5.08873 -112.329 -166.336 2.12175e+06 
256 -0.02445 8.83564e-05 2092.81 275.153 5.0627 5.09085 -115.989 -171.88 2.14407e+06 
300 -0.02005 8.84008e-05 2091.76 281.042 5.17364 5.28438 -449.809 -667.144 4.17284e+06 
289 -0.02115 8.83836e-05 2092.17 278.725 5.12999 5.20825 -318.509 -472.538 3.37778e+06 
290 -0.02105 8.8385e-05 2092.13 278.918 5.13364 5.21468 -329.502 -488.52 3.44193e+06 
291 -0.02095 8.83866e-05 2092.1 279.126 5.13755 5.22154 -341.135 -505.701 3.51147e+06 
292 -0.02085 8.83873e-05 2092.07 279.295 5.1407 5.22681 -350.661 -519.82 3.57103e+06 
293 -0.02075 8.83889e-05 2092.04 279.48 5.14421 5.23279 -361.374 -535.23 3.63658e+06 
294 -0.02065 8.83905e-05 2092 279.681 5.14801 5.23946 -372.648 -552.322 3.70535e+06 
295 -0.02055 8.8393e-05 2091.96 279.92 5.15255 5.24743 -386.318 -572.021 3.78468e+06 
296 -0.02045 8.83936e-05 2091.92 280.141 5.15664 5.25482 -398.582 -590.651 3.85838e+06 
297 -0.02035 8.83961e-05 2091.88 280.375 5.16109 5.26246 -412.059 -610.011 3.93962e+06 
298 -0.02025 8.83982e-05 2091.84 280.6 5.16535 5.26975 -424.79 -628.727 4.01713e+06 
299 -0.02015 8.8399e-05 2091.8 280.806 5.16921 5.27625 -436.171 -645.954 4.08824e+06 
276 -0.02245 8.83688e-05 2092.5 276.878 5.09515 5.14716 -213.745 -316.389 2.74002e+06 
277 -0.02235 8.83706e-05 2092.48 276.985 5.09723 5.15096 -220.05 -326.343 2.77997e+06 
278 -0.02225 8.83715e-05 2092.46 277.122 5.0998 5.15532 -227.731 -337.033 2.82392e+06 
279 -0.02215 8.83723e-05 2092.43 277.255 5.10229 5.15952 -235.088 -347.517 2.8677e+06 
280 -0.02205 8.83734e-05 2092.41 277.382 5.1047 5.16395 -242.416 -358.926 2.9133e+06 
281 -0.02195 8.83741e-05 2092.39 277.498 5.10687 5.16765 -249.018 -368.815 2.95542e+06 
282 -0.02185 8.83743e-05 2092.37 277.608 5.1089 5.17134 -255.022 -378.352 2.99383e+06 
283 -0.02175 8.83771e-05 2092.34 277.768 5.112 5.17673 -264.522 -392.199 3.05041e+06 
284 -0.02165 8.83772e-05 2092.31 277.932 5.11503 5.18229 -273.323 -405.696 3.10202e+06 
285 -0.02155 8.8378e-05 2092.28 278.106 5.11828 5.18804 -283.335 -420.064 3.16081e+06 
286 -0.02145 8.83801e-05 2092.25 278.254 5.12113 5.19302 -291.888 -433.124 3.21439e+06 
287 -0.02135 8.83806e-05 2092.23 278.396 5.12377 5.19769 -299.901 -445.2 3.26437e+06 
288 -0.02125 8.83817e-05 2092.2 278.544 5.12657 5.20236 -308.271 -457.537 3.31652e+06 
301 -0.01995 8.8403e-05 2091.72 281.288 5.17831 5.29217 -463.481 -686.731 4.25436e+06 
321 -0.01795 8.84586e-05 2090.4 288.589 5.31605 5.53506 -877.502 -1303.33 6.74623e+06 
322 -0.01785 8.84622e-05 2090.31 289.11 5.32588 5.55265 -906.677 -1347.11 6.91961e+06 
323 -0.01775 8.84663e-05 2090.21 289.619 5.33549 5.56924 -935.512 -1389.53 7.09291e+06 
324 -0.01765 8.84695e-05 2090.11 290.168 5.34581 5.58769 -966.582 -1435.87 7.27768e+06 
325 -0.01755 8.84748e-05 2090.01 290.71 5.3561 5.60626 -997.286 -1482.8 7.46382e+06 
302 -0.01985 8.84054e-05 2091.66 281.565 5.18356 5.30184 -479.458 -711.151 4.35131e+06 
303 -0.01975 8.8407e-05 2091.62 281.821 5.18835 5.30998 -493.82 -732.305 4.43935e+06 
304 -0.01965 8.84082e-05 2091.58 282.058 5.19279 5.3179 -507.291 -753.383 4.52443e+06 
305 -0.01955 8.84111e-05 2091.52 282.368 5.19867 5.32817 -524.828 -779.112 4.62853e+06 
306 -0.01945 8.84135e-05 2091.46 282.681 5.20458 5.33849 -542.419 -804.816 4.73149e+06 
307 -0.01935 8.84154e-05 2091.41 282.977 5.21013 5.34818 -559.291 -830.215 4.83643e+06 
308 -0.01925 8.84177e-05 2091.36 283.281 5.21587 5.35851 -576.46 -856.358 4.94069e+06 
309 -0.01915 8.84207e-05 2091.29 283.642 5.22269 5.37082 -597.195 -887.256 5.06414e+06 
310 -0.01905 8.84238e-05 2091.23 283.99 5.22928 5.38222 -616.669 -915.711 5.17915e+06 
311 -0.01895 8.84255e-05 2091.16 284.36 5.2362 5.39426 -637.495 -945.921 5.30262e+06 
312 -0.01885 8.84293e-05 2091.1 284.703 5.24274 5.40585 -657.263 -975.721 5.4222e+06 
313 -0.01875 8.84311e-05 2091.03 285.089 5.24996 5.41837 -678.935 -1007.27 5.55154e+06 
314 -0.01865 8.84352e-05 2090.96 285.495 5.25767 5.43222 -701.905 -1041.79 5.68823e+06 
315 -0.01855 8.84367e-05 2090.89 285.868 5.26463 5.44456 -723.001 -1073.75 5.81687e+06 
316 -0.01845 8.84413e-05 2090.81 286.292 5.27271 5.45893 -747.202 -1109.93 5.96285e+06 
317 -0.01835 8.8444e-05 2090.73 286.738 5.28109 5.47343 -772.495 -1146.58 6.11383e+06 
318 -0.01825 8.84464e-05 2090.66 287.157 5.28895 5.48745 -795.922 -1182.15 6.25501e+06 
319 -0.01815 8.84509e-05 2090.58 287.605 5.29746 5.50225 -821.355 -1220.02 6.41019e+06 
320 -0.01805 8.84548e-05 2090.49 288.097 5.30676 5.51883 -849.046 -1261.31 6.57272e+06 
334 -0.01665 8.85207e-05 2088.93 296.671 5.46877 5.80512 -1334.65 -1984.29 9.47989e+06 
326 -0.01745 8.84792e-05 2089.92 291.274 5.36676 5.62449 -1029.34 -1529.59 7.65652e+06 
327 -0.01735 8.84826e-05 2089.81 291.869 5.37793 5.64467 -1062.66 -1580.12 7.85611e+06 
328 -0.01725 8.8489e-05 2089.69 292.503 5.39001 5.66586 -1098.85 -1633.42 8.07108e+06 
329 -0.01715 8.84931e-05 2089.58 293.1 5.40125 5.68587 -1132.57 -1684.54 8.27654e+06 
330 -0.01705 8.84982e-05 2089.46 293.788 5.41425 5.70879 -1171.33 -1741.75 8.5049e+06 
331 -0.01695 8.85034e-05 2089.33 294.489 5.42748 5.73183 -1211.08 -1799.85 8.74132e+06 
332 -0.01685 8.85093e-05 2089.2 295.224 5.4414 5.7561 -1252.69 -1860.43 8.98667e+06 
333 -0.01675 8.85146e-05 2089.07 295.959 5.45528 5.78079 -1294.42 -1922.84 9.23688e+06 
335 -0.01655 8.85269e-05 2088.8 297.442 5.48337 5.83065 -1378.02 -2048.51 9.73831e+06 
336 -0.01645 8.85316e-05 2088.65 298.25 5.49855 5.85783 -1423.83 -2117.34 1.00139e+07 
337 -0.01635 8.85404e-05 2088.49 299.147 5.51564 5.88789 -1474.63 -2191.65 1.03102e+07 
338 -0.01625 8.8545e-05 2088.33 300.025 5.53211 5.91731 -1523.96 -2265.54 1.06035e+07 
339 -0.01615 8.85534e-05 2088.17 300.857 5.54798 5.94561 -1571.24 -2337.49 1.08917e+07 
340 -0.01605 8.85602e-05 2088.01 301.767 5.5652 5.97571 -1622.78 -2414.03 1.12004e+07 
341 -0.01595 8.85662e-05 2087.84 302.72 5.58315 6.00749 -1676.33 -2493.4 1.15169e+07 