ITEM: TIMESTEP
30000
ITEM: NUMBER OF CELLS
800
ITEM: BOX BOUNDS os pp pp
-0.05 0.03
-0.001 0.001
-0.001 0.001
ITEM: CELLS id f_1[1] f_1[2] f_1[3] f_1[4] f_1[5] f_1[6] f_1[7] f_1[8] f_1[9] 
1 -0.04995 8.8341e-05 2339.42 273.117 5.02437 5.02315 -0.184447 -0.337804 1.42829e+06 
2 -0.04985 8.83425e-05 2339.42 273.117 5.02445 5.02333 -0.212293 -0.352136 1.42855e+06 
3 -0.04975 8.83417e-05 2339.42 273.117 5.0244 5.02327 -0.255724 -0.431854 1.4288e+06 
4 -0.04965 8.8342e-05 2339.41 273.117 5.02443 5.02336 -0.268398 -0.440272 1.42877e+06 
5 -0.04955 8.83412e-05 2339.42 273.119 5.02441 5.02329 -0.283534 -0.494013 1.42893e+06 
6 -0.04945 8.83416e-05 2339.42 273.118 5.02441 5.02331 -0.312646 -0.543972 1.429e+06 
7 -0.04935 8.83424e-05 2339.42 273.119 5.02448 5.02347 -0.318637 -0.559964 1.4291e+06 
8 -0.04925 8.83416e-05 2339.42 273.118 5.02441 5.02339 -0.357349 -0.64247 1.42926e+06 
9 -0.04915 8.83411e-05 2339.42 273.12 5.02442 5.02338 -0.386598 -0.673965 1.42929e+06 
10 -0.04905 8.83422e-05 2339.41 273.12 5.02449 5.02348 -0.33357 -0.612836 1.42934e+06 
11 -0.04895 8.83411e-05 2339.42 273.118 5.02438 5.02335 -0.391394 -0.714394 1.42939e+06 
12 -0.04885 8.83418e-05 2339.42 273.118 5.02443 5.02351 -0.333363 -0.625913 1.42921e+06 
13 -0.04875 8.83417e-05 2339.41 273.122 5.02449 5.02345 -0.406179 -0.73075 1.42963e+06 
14 -0.04865 8.83417e-05 2339.42 273.12 5.02445 5.02347 -0.339591 -0.650153 1.42942e+06 
15 -0.04855 8.83414e-05 2339.42 273.12 5.02444 5.02347 -0.40768 -0.751648 1.42971e+06 
16 -0.04845 8.83418e-05 2339.42 273.119 5.02444 5.02351 -0.405776 -0.749045 1.42964e+06 
17 -0.04835 8.83419e-05 2339.41 273.12 5.02447 5.02353 -0.459114 -0.827483 1.42996e+06 
18 -0.04825 8.83418e-05 2339.42 273.121 5.02448 5.02362 -0.491509 -0.878783 1.43009e+06 
19 -0.04815 8.83421e-05 2339.42 273.123 5.02453 5.02365 -0.456263 -0.839532 1.43018e+06 
20 -0.04805 8.83416e-05 2339.41 273.121 5.02448 5.02366 -0.570844 -0.981595 1.43052e+06 
21 -0.04795 8.83414e-05 2339.41 273.124 5.02452 5.02377 -0.582061 -1.01109 1.43075e+06 
22 -0.04785 8.83414e-05 2339.42 273.123 5.0245 5.0237 -0.565847 -1.03435 1.43063e+06 
23 -0.04775 8.8342e-05 2339.42 273.121 5.0245 5.02374 -0.544426 -1.00435 1.43064e+06 
24 -0.04765 8.83419e-05 2339.41 273.124 5.02454 5.0238 -0.590231 -1.01354 1.43085e+06 
25 -0.04755 8.8342e-05 2339.41 273.123 5.02452 5.0238 -0.674428 -1.14337 1.43119e+06 
34 -0.04665 8.83412e-05 2339.41 273.126 5.02454 5.02397 -0.679593 -1.12429 1.43173e+06 
33 -0.04675 8.83418e-05 2339.41 273.126 5.02458 5.02394 -0.698151 -1.13166 1.4318e+06 
35 -0.04655 8.83417e-05 2339.41 273.125 5.02455 5.02392 -0.705059 -1.17778 1.43205e+06 
36 -0.04645 8.8342e-05 2339.41 273.125 5.02455 5.02392 -0.667611 -1.12396 1.43171e+06 
37 -0.04635 8.83422e-05 2339.41 273.126 5.02459 5.02399 -0.689714 -1.14445 1.43208e+06 
38 -0.04625 8.83416e-05 2339.41 273.122 5.0245 5.02383 -0.712708 -1.15036 1.43201e+06 
39 -0.04615 8.8342e-05 2339.41 273.124 5.02455 5.02394 -0.711728 -1.17926 1.43213e+06 
40 -0.04605 8.83416e-05 2339.41 273.127 5.02458 5.02396 -0.717389 -1.18764 1.43237e+06 
41 -0.04595 8.83415e-05 2339.41 273.126 5.02455 5.02398 -0.800741 -1.31686 1.43266e+06 
42 -0.04585 8.83422e-05 2339.41 273.127 5.02462 5.024 -0.814374 -1.34032 1.43299e+06 
43 -0.04575 8.83421e-05 2339.41 273.127 5.0246 5.02402 -0.8559 -1.36514 1.43323e+06 
44 -0.04565 8.83418e-05 2339.41 273.129 5.02462 5.02402 -0.884484 -1.38951 1.43336e+06 
45 -0.04555 8.83417e-05 2339.41 273.129 5.02462 5.02401 -0.869923 -1.38698 1.43335e+06 
46 -0.04545 8.83421e-05 2339.41 273.128 5.02462 5.0241 -0.894424 -1.42273 1.4336e+06 
47 -0.04535 8.8341e-05 2339.41 273.129 5.02458 5.02399 -0.94815 -1.49085 1.43385e+06 
48 -0.04525 8.83417e-05 2339.41 273.13 5.02464 5.02404 -0.954452 -1.52232 1.43415e+06 
49 -0.04515 8.83415e-05 2339.41 273.127 5.02458 5.024 -0.923496 -1.48461 1.43385e+06 
50 -0.04505 8.83413e-05 2339.41 273.131 5.02464 5.024 -1.04871 -1.62753 1.43476e+06 
26 -0.04745 8.83415e-05 2339.41 273.123 5.0245 5.02376 -0.60103 -1.0775 1.43097e+06 
27 -0.04735 8.83419e-05 2339.41 273.127 5.02459 5.02394 -0.586727 -1.01416 1.43095e+06 
28 -0.04725 8.83418e-05 2339.41 273.122 5.02449 5.02385 -0.586444 -1.04098 1.4311e+06 
29 -0.04715 8.83421e-05 2339.41 273.122 5.02451 5.0238 -0.585339 -0.976529 1.43084e+06 
30 -0.04705 8.83418e-05 2339.41 273.125 5.02456 5.02399 -0.621961 -1.08525 1.43148e+06 
31 -0.04695 8.83413e-05 2339.41 273.123 5.02449 5.02383 -0.618374 -1.0591 1.4313e+06 
32 -0.04685 8.83422e-05 2339.41 273.122 5.02452 5.02386 -0.624358 -1.05549 1.43134e+06 
67 -0.04335 8.83426e-05 2339.41 273.142 5.0249 5.02432 -1.537 -2.32883 1.43808e+06 
65 -0.04355 8.83417e-05 2339.41 273.14 5.02483 5.02425 -1.50365 -2.25769 1.43771e+06 
66 -0.04345 8.83417e-05 2339.41 273.137 5.02476 5.02421 -1.49598 -2.28038 1.43778e+06 
68 -0.04325 8.83415e-05 2339.41 273.14 5.02481 5.02418 -1.58278 -2.36883 1.43816e+06 
69 -0.04315 8.83413e-05 2339.41 273.138 5.02476 5.02422 -1.57683 -2.37957 1.43842e+06 
70 -0.04305 8.83419e-05 2339.41 273.14 5.02484 5.02433 -1.61926 -2.43811 1.4387e+06 
71 -0.04295 8.83421e-05 2339.41 273.141 5.02486 5.02439 -1.64558 -2.46271 1.43898e+06 
72 -0.04285 8.83414e-05 2339.41 273.145 5.0249 5.02455 -1.83905 -2.84006 1.43994e+06 
73 -0.04275 8.83411e-05 2339.41 273.144 5.02485 5.02452 -1.7715 -2.7357 1.43962e+06 
74 -0.04265 8.83417e-05 2339.41 273.142 5.02485 5.02443 -1.80005 -2.73643 1.4399e+06 
75 -0.04255 8.83421e-05 2339.41 273.145 5.02494 5.02456 -1.84374 -2.80382 1.4402e+06 
51 -0.04495 8.83426e-05 2339.41 273.129 5.02468 5.02405 -0.915556 -1.49763 1.43408e+06 
52 -0.04485 8.83411e-05 2339.41 273.129 5.0246 5.02391 -1.02056 -1.65933 1.43477e+06 
53 -0.04475 8.83422e-05 2339.41 273.13 5.02467 5.02399 -1.0453 -1.69363 1.43475e+06 
54 -0.04465 8.83417e-05 2339.42 273.131 5.02466 5.02404 -1.01799 -1.58494 1.43467e+06 
55 -0.04455 8.83415e-05 2339.41 273.131 5.02465 5.02399 -1.12636 -1.77801 1.43542e+06 
56 -0.04445 8.83415e-05 2339.41 273.132 5.02467 5.02403 -1.1872 -1.85161 1.43554e+06 
57 -0.04435 8.83423e-05 2339.41 273.134 5.02474 5.02415 -1.17879 -1.84598 1.43576e+06 
58 -0.04425 8.83422e-05 2339.41 273.133 5.02472 5.02411 -1.1855 -1.87271 1.43568e+06 
59 -0.04415 8.83417e-05 2339.41 273.133 5.02468 5.02412 -1.20657 -1.8963 1.43589e+06 
60 -0.04405 8.83419e-05 2339.41 273.133 5.02471 5.02408 -1.18086 -1.87695 1.43584e+06 
61 -0.04395 8.83414e-05 2339.42 273.135 5.02471 5.02408 -1.26602 -1.98926 1.43636e+06 
62 -0.04385 8.83422e-05 2339.41 273.136 5.02478 5.02421 -1.28075 -1.99587 1.43654e+06 
63 -0.04375 8.83421e-05 2339.41 273.135 5.02476 5.02407 -1.34671 -2.07471 1.43687e+06 
64 -0.04365 8.83418e-05 2339.41 273.136 5.02476 5.02413 -1.40066 -2.12032 1.437e+06 
100 -0.04005 8.8342e-05 2339.41 273.175 5.02548 5.02573 -3.79731 -5.64912 1.45357e+06 
97 -0.04035 8.83421e-05 2339.41 273.167 5.02534 5.02544 -3.43069 -5.08127 1.45105e+06 
98 -0.04025 8.83425e-05 2339.41 273.17 5.02542 5.0255 -3.48077 -5.18393 1.4516e+06 
99 -0.04015 8.8342e-05 2339.41 273.173 5.02544 5.02563 -3.64328 -5.36814 1.45238e+06 
76 -0.04245 8.83413e-05 2339.41 273.145 5.02489 5.02452 -1.95549 -2.91573 1.44091e+06 
77 -0.04235 8.83425e-05 2339.41 273.146 5.02497 5.0246 -1.97103 -2.9625 1.44109e+06 
78 -0.04225 8.8342e-05 2339.41 273.148 5.02498 5.02468 -2.06479 -3.11813 1.44149e+06 
79 -0.04215 8.83415e-05 2339.41 273.148 5.02496 5.02469 -2.19457 -3.2696 1.44238e+06 
80 -0.04205 8.83425e-05 2339.41 273.149 5.02504 5.02482 -2.19477 -3.26305 1.44234e+06 
81 -0.04195 8.83414e-05 2339.41 273.151 5.02502 5.0248 -2.30851 -3.49397 1.44322e+06 
82 -0.04185 8.8342e-05 2339.41 273.151 5.02505 5.02488 -2.33788 -3.51939 1.44324e+06 
83 -0.04175 8.83425e-05 2339.41 273.151 5.02507 5.02483 -2.338 -3.48642 1.44344e+06 
84 -0.04165 8.83411e-05 2339.41 273.155 5.02506 5.02481 -2.47633 -3.67655 1.44425e+06 
85 -0.04155 8.83417e-05 2339.41 273.154 5.02509 5.02496 -2.5202 -3.72205 1.4447e+06 
86 -0.04145 8.83426e-05 2339.41 273.155 5.02516 5.02499 -2.54964 -3.80704 1.44487e+06 
87 -0.04135 8.83417e-05 2339.41 273.156 5.02511 5.02499 -2.62738 -3.90728 1.44541e+06 
88 -0.04125 8.83422e-05 2339.41 273.159 5.0252 5.02517 -2.73263 -4.06151 1.44611e+06 
89 -0.04115 8.83417e-05 2339.41 273.156 5.02512 5.02501 -2.70978 -4.07757 1.4461e+06 
90 -0.04105 8.83426e-05 2339.41 273.16 5.02525 5.02526 -2.75005 -4.11853 1.44671e+06 
91 -0.04095 8.83412e-05 2339.41 273.16 5.02517 5.02518 -2.90836 -4.3356 1.44738e+06 
92 -0.04085 8.83415e-05 2339.41 273.16 5.02518 5.02514 -2.99974 -4.4406 1.44792e+06 
93 -0.04075 8.83424e-05 2339.41 273.164 5.02531 5.02533 -3.01251 -4.43684 1.44837e+06 
94 -0.04065 8.83417e-05 2339.41 273.165 5.02528 5.02531 -3.15477 -4.6271 1.44932e+06 
95 -0.04055 8.83419e-05 2339.41 273.165 5.02529 5.02531 -3.33996 -4.86347 1.45019e+06 
96 -0.04045 8.83422e-05 2339.41 273.172 5.02544 5.02564 -3.5077 -5.12019 1.45148e+06 
101 -0.03995 8.83418e-05 2339.4 273.177 5.02552 5.02578 -3.97291 -5.84118 1.45443e+06 
102 -0.03985 8.83413e-05 2339.41 273.178 5.0255 5.02575 -4.07601 -6.05709 1.45537e+06 
103 -0.03975 8.83429e-05 2339.4 273.179 5.02562 5.0259 -4.04037 -5.94282 1.45519e+06 
104 -0.03965 8.83425e-05 2339.41 273.182 5.02564 5.026 -4.33771 -6.38444 1.45692e+06 
105 -0.03955 8.83422e-05 2339.4 273.183 5.02564 5.02598 -4.29366 -6.33755 1.45703e+06 
106 -0.03945 8.83418e-05 2339.4 273.184 5.02564 5.02599 -4.36737 -6.44103 1.4573e+06 
107 -0.03935 8.83421e-05 2339.4 273.186 5.02569 5.02611 -4.4779 -6.60964 1.45839e+06 
108 -0.03925 8.83418e-05 2339.4 273.189 5.02574 5.02623 -4.71576 -6.90759 1.45962e+06 
109 -0.03915 8.83422e-05 2339.4 273.191 5.02579 5.02629 -4.87895 -7.07976 1.46062e+06 
110 -0.03905 8.83422e-05 2339.4 273.195 5.02587 5.02647 -5.11057 -7.43379 1.46216e+06 
111 -0.03895 8.8343e-05 2339.4 273.194 5.02589 5.02641 -5.01995 -7.34334 1.46206e+06 
112 -0.03885 8.83415e-05 2339.4 273.196 5.02583 5.02643 -5.07898 -7.60532 1.4626e+06 
113 -0.03875 8.8342e-05 2339.4 273.193 5.02582 5.0264 -5.00499 -7.54557 1.46244e+06 
114 -0.03865 8.83425e-05 2339.4 273.198 5.02594 5.02661 -5.29754 -7.88463 1.46443e+06 
115 -0.03855 8.83422e-05 2339.4 273.2 5.02595 5.0267 -5.46996 -8.11279 1.46502e+06 
116 -0.03845 8.83416e-05 2339.4 273.206 5.02603 5.02678 -5.74044 -8.51244 1.46717e+06 
117 -0.03835 8.83421e-05 2339.4 273.208 5.0261 5.02685 -5.88984 -8.71303 1.46783e+06 
118 -0.03825 8.83425e-05 2339.4 273.211 5.02617 5.02702 -6.20702 -9.05861 1.46969e+06 
119 -0.03815 8.83422e-05 2339.4 273.212 5.02618 5.02704 -6.25197 -9.21599 1.47052e+06 
120 -0.03805 8.83423e-05 2339.4 273.217 5.02627 5.02716 -6.38239 -9.49821 1.47132e+06 
121 -0.03795 8.83431e-05 2339.4 273.22 5.02638 5.0274 -6.67919 -9.88747 1.47326e+06 
122 -0.03785 8.83426e-05 2339.4 273.222 5.02637 5.02733 -6.82351 -9.98959 1.47395e+06 
123 -0.03775 8.83423e-05 2339.4 273.222 5.02636 5.02734 -6.98006 -10.2744 1.4756e+06 
124 -0.03765 8.83419e-05 2339.4 273.228 5.02646 5.02744 -7.02932 -10.2358 1.47558e+06 
125 -0.03755 8.83422e-05 2339.4 273.228 5.02646 5.02746 -7.19487 -10.5206 1.47706e+06 
134 -0.03665 8.83419e-05 2339.39 273.253 5.02692 5.02825 -8.87427 -13.0328 1.48945e+06 
129 -0.03715 8.83421e-05 2339.4 273.237 5.02663 5.02785 -7.99948 -11.8006 1.48306e+06 
130 -0.03705 8.8343e-05 2339.4 273.243 5.02679 5.02801 -7.98553 -11.7787 1.48294e+06 
131 -0.03695 8.83423e-05 2339.39 273.247 5.02682 5.02809 -8.41388 -12.3966 1.48558e+06 
132 -0.03685 8.83424e-05 2339.39 273.251 5.02691 5.02822 -8.58604 -12.5521 1.48707e+06 
133 -0.03675 8.83433e-05 2339.39 273.252 5.02698 5.02831 -8.75226 -12.8456 1.48824e+06 
135 -0.03655 8.83425e-05 2339.39 273.26 5.02707 5.02849 -9.18069 -13.4556 1.4914e+06 
136 -0.03645 8.83429e-05 2339.39 273.262 5.02714 5.02856 -9.34872 -13.702 1.49304e+06 
137 -0.03635 8.83428e-05 2339.39 273.262 5.02713 5.02857 -9.49076 -13.8761 1.49371e+06 
138 -0.03625 8.83434e-05 2339.39 273.268 5.02726 5.02878 -9.85014 -14.4029 1.49669e+06 
139 -0.03615 8.8343e-05 2339.39 273.273 5.02735 5.029 -9.91617 -14.5645 1.49667e+06 
140 -0.03605 8.83424e-05 2339.39 273.274 5.02733 5.02895 -10.2542 -15.07 1.49916e+06 
141 -0.03595 8.83433e-05 2339.39 273.28 5.02749 5.02934 -10.5801 -15.5096 1.50164e+06 
142 -0.03585 8.83432e-05 2339.39 273.285 5.02757 5.02939 -10.878 -15.9924 1.50334e+06 
143 -0.03575 8.8343e-05 2339.39 273.293 5.02771 5.02968 -11.3061 -16.4213 1.50625e+06 
144 -0.03565 8.83425e-05 2339.39 273.297 5.02776 5.0297 -11.6272 -16.9953 1.50851e+06 
145 -0.03555 8.8343e-05 2339.39 273.301 5.02786 5.02992 -11.8719 -17.3475 1.5106e+06 
146 -0.03545 8.83432e-05 2339.39 273.305 5.02795 5.03002 -12.0497 -17.7319 1.51167e+06 
147 -0.03535 8.8343e-05 2339.38 273.305 5.02794 5.03007 -12.3126 -18.157 1.51413e+06 
148 -0.03525 8.83436e-05 2339.38 273.317 5.02819 5.03038 -12.8477 -18.8094 1.51747e+06 
149 -0.03515 8.83428e-05 2339.38 273.321 5.02821 5.03049 -13.1835 -19.33 1.51951e+06 
150 -0.03505 8.83431e-05 2339.38 273.326 5.02832 5.0308 -13.4617 -19.8335 1.5217e+06 
126 -0.03745 8.83424e-05 2339.4 273.229 5.02649 5.02761 -7.35796 -10.8428 1.47802e+06 
127 -0.03735 8.83434e-05 2339.4 273.235 5.02667 5.02786 -7.66697 -11.2254 1.48013e+06 
128 -0.03725 8.83428e-05 2339.39 273.238 5.0267 5.02789 -7.85575 -11.5216 1.48106e+06 
167 -0.03335 8.83439e-05 2339.36 273.443 5.03052 5.03477 -20.9306 -30.808 1.57397e+06 
161 -0.03395 8.83436e-05 2339.37 273.4 5.02971 5.03316 -18.2404 -26.6424 1.55418e+06 
162 -0.03385 8.83439e-05 2339.37 273.41 5.02991 5.03364 -18.8059 -27.6445 1.55872e+06 
163 -0.03375 8.83434e-05 2339.37 273.415 5.02998 5.03378 -19.2859 -28.3073 1.5616e+06 
164 -0.03365 8.83435e-05 2339.36 273.426 5.03019 5.03416 -19.824 -29.086 1.5653e+06 
165 -0.03355 8.83438e-05 2339.36 273.426 5.03021 5.03421 -19.9762 -29.2887 1.56713e+06 
166 -0.03345 8.83434e-05 2339.36 273.434 5.03033 5.03443 -20.4077 -30.0634 1.5703e+06 
168 -0.03325 8.8344e-05 2339.36 273.455 5.03074 5.0351 -21.611 -31.9063 1.57878e+06 
169 -0.03315 8.83442e-05 2339.36 273.457 5.0308 5.03532 -21.9072 -32.4756 1.58097e+06 
170 -0.03305 8.83435e-05 2339.36 273.477 5.03112 5.03584 -23.1293 -34.0425 1.58825e+06 
171 -0.03295 8.83443e-05 2339.35 273.491 5.03142 5.03634 -24.1541 -35.4844 1.59509e+06 
172 -0.03285 8.83444e-05 2339.35 273.496 5.03152 5.03645 -24.3558 -35.7482 1.59697e+06 
173 -0.03275 8.83443e-05 2339.35 273.512 5.03181 5.03698 -25.219 -36.9295 1.60239e+06 
174 -0.03265 8.83442e-05 2339.35 273.515 5.03187 5.0371 -25.7492 -37.9876 1.60733e+06 
175 -0.03255 8.83433e-05 2339.35 273.528 5.03204 5.0375 -26.268 -38.7085 1.61037e+06 
151 -0.03495 8.8343e-05 2339.38 273.332 5.02844 5.03089 -13.9395 -20.3219 1.52477e+06 
152 -0.03485 8.83433e-05 2339.38 273.342 5.02862 5.03132 -14.5793 -21.4075 1.52892e+06 
153 -0.03475 8.83425e-05 2339.38 273.349 5.0287 5.03145 -14.8664 -21.7121 1.53052e+06 
154 -0.03465 8.83444e-05 2339.38 273.354 5.02891 5.03181 -15.2648 -22.4047 1.53389e+06 
155 -0.03455 8.83432e-05 2339.37 273.357 5.0289 5.03181 -15.5574 -22.882 1.53549e+06 
156 -0.03445 8.83433e-05 2339.37 273.365 5.02904 5.03215 -15.9865 -23.5852 1.53913e+06 
157 -0.03435 8.83428e-05 2339.37 273.367 5.02907 5.03212 -16.0479 -23.7199 1.53966e+06 
158 -0.03425 8.83441e-05 2339.37 273.372 5.02924 5.03245 -16.4581 -24.1902 1.54263e+06 
159 -0.03415 8.8343e-05 2339.37 273.381 5.02934 5.03256 -17.1083 -25.0998 1.5469e+06 
160 -0.03405 8.83437e-05 2339.37 273.391 5.02956 5.033 -17.7317 -26.0262 1.55084e+06 
200 -0.03005 8.83465e-05 2339.28 273.941 5.03983 5.05095 -52.6802 -77.8759 1.79219e+06 
193 -0.03075 8.83455e-05 2339.3 273.813 5.03741 5.04669 -44.5706 -65.6422 1.73483e+06 
194 -0.03065 8.83468e-05 2339.3 273.83 5.0378 5.04729 -45.6277 -67.0992 1.74139e+06 
195 -0.03055 8.83463e-05 2339.3 273.848 5.03811 5.04791 -46.6612 -68.8586 1.7498e+06 
196 -0.03045 8.83459e-05 2339.3 273.851 5.03815 5.04808 -47.0902 -69.7337 1.7546e+06 
197 -0.03035 8.83465e-05 2339.29 273.872 5.03855 5.04863 -48.174 -71.3614 1.76167e+06 
198 -0.03025 8.83463e-05 2339.29 273.893 5.03894 5.04939 -49.5962 -73.4448 1.77151e+06 
199 -0.03015 8.8347e-05 2339.29 273.917 5.03941 5.05035 -51.1632 -75.9052 1.78231e+06 
176 -0.03245 8.83448e-05 2339.35 273.543 5.03241 5.03811 -27.28 -40.092 1.61707e+06 
177 -0.03235 8.83445e-05 2339.34 273.556 5.03263 5.03832 -28.214 -41.4464 1.62342e+06 
178 -0.03225 8.83448e-05 2339.34 273.564 5.03279 5.03881 -28.7281 -42.3192 1.62703e+06 
179 -0.03215 8.83443e-05 2339.34 273.584 5.03314 5.03932 -29.8633 -44.0634 1.63476e+06 
180 -0.03205 8.83446e-05 2339.34 273.594 5.03334 5.03959 -30.572 -45.1209 1.63949e+06 
181 -0.03195 8.83453e-05 2339.34 273.605 5.03359 5.04014 -31.3978 -46.455 1.6452e+06 
182 -0.03185 8.83447e-05 2339.33 273.623 5.03389 5.04056 -32.4575 -47.9765 1.65333e+06 
183 -0.03175 8.83447e-05 2339.33 273.631 5.03403 5.04073 -33.0527 -48.7143 1.65744e+06 
184 -0.03165 8.8345e-05 2339.33 273.652 5.03443 5.04144 -34.3633 -50.5051 1.66507e+06 
185 -0.03155 8.83448e-05 2339.33 273.673 5.03481 5.04206 -35.6651 -52.2385 1.67341e+06 
186 -0.03145 8.8345e-05 2339.32 273.679 5.03493 5.04234 -36.0165 -53.2126 1.67786e+06 
187 -0.03135 8.83456e-05 2339.32 273.694 5.03523 5.04286 -36.9276 -54.5498 1.6842e+06 
188 -0.03125 8.83452e-05 2339.32 273.705 5.03543 5.04329 -37.735 -55.9456 1.69077e+06 
189 -0.03115 8.83456e-05 2339.31 273.73 5.03589 5.04408 -39.2337 -57.9297 1.69933e+06 
190 -0.03105 8.83457e-05 2339.31 273.756 5.03639 5.04504 -40.8912 -60.4643 1.70961e+06 
191 -0.03095 8.83456e-05 2339.31 273.77 5.03664 5.04542 -41.9197 -61.9773 1.71719e+06 
192 -0.03085 8.83463e-05 2339.31 273.79 5.03705 5.04605 -42.9312 -63.4791 1.72388e+06 
201 -0.02995 8.83466e-05 2339.28 273.963 5.04024 5.05167 -54.1803 -79.9956 1.80243e+06 
225 -0.02755 8.83515e-05 2339.15 274.791 5.05575 5.07858 -106.686 -157.333 2.15978e+06 
202 -0.02985 8.83472e-05 2339.27 273.992 5.04082 5.05267 -55.8416 -82.602 1.81337e+06 
203 -0.02975 8.83475e-05 2339.27 274.02 5.04135 5.05363 -57.7267 -85.2516 1.82597e+06 
204 -0.02965 8.83474e-05 2339.27 274.044 5.04177 5.05447 -59.1145 -87.5045 1.83544e+06 
205 -0.02955 8.83471e-05 2339.26 274.071 5.04227 5.05532 -61.0556 -90.2833 1.84908e+06 
206 -0.02945 8.8348e-05 2339.25 274.095 5.04274 5.05599 -62.5118 -92.3535 1.8586e+06 
207 -0.02935 8.83476e-05 2339.25 274.122 5.04323 5.05693 -64.2187 -94.6327 1.87044e+06 
208 -0.02925 8.83479e-05 2339.25 274.151 5.04379 5.05786 -65.9629 -97.2305 1.88273e+06 
209 -0.02915 8.83483e-05 2339.24 274.179 5.04431 5.05862 -67.7412 -99.7465 1.89472e+06 
210 -0.02905 8.83482e-05 2339.24 274.222 5.04509 5.06016 -70.5637 -103.946 1.91288e+06 
211 -0.02895 8.83485e-05 2339.24 274.245 5.04554 5.06097 -71.9218 -106.025 1.9231e+06 
212 -0.02885 8.83484e-05 2339.23 274.268 5.04596 5.06149 -73.5101 -108.281 1.93555e+06 
213 -0.02875 8.83493e-05 2339.22 274.296 5.04652 5.06253 -75.3131 -111.12 1.9481e+06 
214 -0.02865 8.83484e-05 2339.22 274.336 5.0472 5.06385 -77.7196 -114.7 1.96295e+06 
215 -0.02855 8.83502e-05 2339.21 274.376 5.04804 5.06534 -80.3503 -118.56 1.98132e+06 
216 -0.02845 8.83497e-05 2339.21 274.405 5.04856 5.06606 -82.2734 -121.387 1.99479e+06 
217 -0.02835 8.83496e-05 2339.21 274.434 5.04908 5.06706 -84.0064 -124.213 2.00738e+06 
218 -0.02825 8.83502e-05 2339.2 274.472 5.04982 5.06832 -86.5802 -127.93 2.02493e+06 
219 -0.02815 8.83504e-05 2339.19 274.512 5.05056 5.06982 -89.0058 -131.911 2.04152e+06 
220 -0.02805 8.83498e-05 2339.19 274.559 5.05139 5.07131 -92.0313 -136.24 2.06132e+06 
221 -0.02795 8.83512e-05 2339.18 274.604 5.0523 5.07265 -94.6852 -139.816 2.0792e+06 
222 -0.02785 8.83508e-05 2339.17 274.643 5.05299 5.07391 -97.3933 -143.904 2.09753e+06 
223 -0.02775 8.83518e-05 2339.16 274.689 5.0539 5.07553 -100.321 -148.436 2.11747e+06 
224 -0.02765 8.83517e-05 2339.16 274.737 5.05477 5.07688 -103.204 -152.212 2.13625e+06 
234 -0.02665 8.83546e-05 2339.07 275.261 5.06459 5.09373 -136.694 -201.636 2.36493e+06 
226 -0.02745 8.83516e-05 2339.14 274.834 5.05655 5.08 -109.365 -161.468 2.17737e+06 
227 -0.02735 8.8353e-05 2339.13 274.894 5.05774 5.08196 -113.373 -167.121 2.20445e+06 
228 -0.02725 8.8352e-05 2339.13 274.932 5.05838 5.08317 -115.785 -170.784 2.22176e+06 
229 -0.02715 8.83537e-05 2339.12 274.977 5.05931 5.08457 -118.583 -174.967 2.24208e+06 
230 -0.02705 8.83534e-05 2339.11 275.027 5.06022 5.08617 -121.669 -179.602 2.26333e+06 
231 -0.02695 8.8352e-05 2339.11 275.07 5.06091 5.08742 -124.477 -183.941 2.28291e+06 
232 -0.02685 8.83543e-05 2339.09 275.133 5.06221 5.08971 -128.465 -190.077 2.311e+06 
233 -0.02675 8.8354e-05 2339.09 275.192 5.06327 5.09158 -132.2 -195.495 2.33502e+06 
235 -0.02655 8.83546e-05 2339.07 275.327 5.06579 5.09575 -140.853 -207.579 2.39271e+06 
236 -0.02645 8.83553e-05 2339.06 275.381 5.06683 5.09774 -144.168 -213.029 2.41584e+06 
237 -0.02635 8.83558e-05 2339.05 275.436 5.06786 5.0996 -147.712 -218.858 2.44175e+06 
238 -0.02625 8.83568e-05 2339.03 275.523 5.06953 5.10239 -153.118 -226.432 2.47602e+06 
239 -0.02615 8.83553e-05 2339.03 275.573 5.07037 5.10399 -156.495 -231.563 2.50026e+06 
240 -0.02605 8.83565e-05 2339.01 275.635 5.07157 5.10606 -160.508 -237.731 2.5289e+06 
241 -0.02595 8.83577e-05 2339 275.743 5.07362 5.10976 -167.204 -247.381 2.57083e+06 
242 -0.02585 8.8358e-05 2338.99 275.808 5.07485 5.11186 -171.343 -253.484 2.59901e+06 
243 -0.02575 8.83579e-05 2338.98 275.886 5.07627 5.11436 -176.573 -261.185 2.63548e+06 
244 -0.02565 8.83582e-05 2338.96 275.959 5.07763 5.11664 -180.966 -267.6 2.66537e+06 
245 -0.02555 8.83592e-05 2338.95 276.038 5.07914 5.11918 -185.91 -274.712 2.69833e+06 
246 -0.02545 8.83596e-05 2338.94 276.127 5.0808 5.12228 -191.592 -283.766 2.73857e+06 
247 -0.02535 8.8359e-05 2338.92 276.215 5.08238 5.12509 -197.399 -292.265 2.77693e+06 
248 -0.02525 8.83607e-05 2338.91 276.308 5.0842 5.12818 -202.918 -300.327 2.81244e+06 
249 -0.02515 8.8362e-05 2338.89 276.391 5.0858 5.13122 -208.535 -309.671 2.85362e+06 
250 -0.02505 8.83614e-05 2338.88 276.479 5.08738 5.13382 -214.122 -317.432 2.89079e+06 
267 -0.02335 8.83743e-05 2338.54 278.645 5.12798 5.205 -351.834 -521.259 3.81984e+06 
257 -0.02435 8.83666e-05 2338.76 277.244 5.10176 5.15889 -262.619 -389.106 3.21892e+06 
258 -0.02425 8.83669e-05 2338.74 277.378 5.10424 5.16347 -271.219 -401.836 3.27453e+06 
259 -0.02415 8.8368e-05 2338.72 277.487 5.10631 5.16705 -278.096 -412.672 3.32416e+06 
260 -0.02405 8.8369e-05 2338.7 277.616 5.10874 5.17136 -286.461 -425.146 3.38197e+06 
261 -0.02395 8.83691e-05 2338.68 277.76 5.11141 5.17594 -295.569 -437.958 3.43936e+06 
262 -0.02385 8.83702e-05 2338.65 277.913 5.11429 5.1809 -305.194 -452.063 3.50426e+06 
263 -0.02375 8.83711e-05 2338.63 278.04 5.11666 5.18518 -313.369 -464.733 3.56187e+06 
264 -0.02365 8.8372e-05 2338.61 278.17 5.11911 5.18956 -321.686 -477.396 3.61838e+06 
265 -0.02355 8.83731e-05 2338.59 278.325 5.12203 5.19471 -331.485 -491.9 3.68458e+06 
266 -0.02345 8.83737e-05 2338.57 278.453 5.12442 5.19863 -339.735 -503.835 3.74178e+06 
268 -0.02325 8.83768e-05 2338.51 278.812 5.1312 5.21073 -362.306 -537.108 3.88844e+06 
269 -0.02315 8.83763e-05 2338.49 278.969 5.13407 5.21559 -372.53 -552.189 3.9612e+06 
270 -0.02305 8.83781e-05 2338.46 279.141 5.13733 5.22135 -383.352 -568.345 4.0323e+06 
271 -0.02295 8.83798e-05 2338.42 279.358 5.14143 5.22847 -396.899 -587.894 4.12019e+06 
272 -0.02285 8.83797e-05 2338.4 279.521 5.14442 5.23382 -407.705 -604.234 4.19564e+06 
273 -0.02275 8.83814e-05 2338.36 279.715 5.1481 5.24052 -419.754 -622.794 4.27533e+06 
274 -0.02265 8.83826e-05 2338.33 279.904 5.15163 5.24668 -431.807 -640.69 4.35752e+06 
275 -0.02255 8.83846e-05 2338.3 280.113 5.1556 5.25352 -445.063 -660.383 4.44635e+06 
251 -0.02495 8.83623e-05 2338.86 276.585 5.08939 5.13749 -220.878 -327.845 2.93781e+06 
252 -0.02485 8.83627e-05 2338.85 276.677 5.09111 5.1404 -226.637 -336.291 2.97686e+06 
253 -0.02475 8.83637e-05 2338.83 276.791 5.09327 5.14426 -234.035 -347.363 3.02646e+06 
254 -0.02465 8.83645e-05 2338.81 276.924 5.09575 5.14837 -242.436 -358.623 3.07937e+06 
255 -0.02455 8.83645e-05 2338.8 277.022 5.09756 5.15183 -248.513 -368.51 3.12144e+06 
256 -0.02445 8.83662e-05 2338.78 277.13 5.09964 5.1551 -255.411 -377.998 3.1689e+06 
300 -0.02005 8.84305e-05 2337.07 287.793 5.2997 5.50694 -932.992 -1385.21 7.71307e+06 
289 -0.02115 8.84054e-05 2337.73 283.673 5.22236 5.37037 -671.385 -995.405 5.96489e+06 
290 -0.02105 8.84076e-05 2337.67 284.044 5.22931 5.38287 -694.895 -1030.17 6.11808e+06 
291 -0.02095 8.84095e-05 2337.62 284.355 5.23516 5.39348 -714.579 -1060.5 6.24978e+06 
292 -0.02085 8.84109e-05 2337.57 284.671 5.24106 5.40346 -734.444 -1089.4 6.38488e+06 
293 -0.02075 8.84136e-05 2337.52 284.995 5.24718 5.41472 -755.57 -1122.76 6.5321e+06 
294 -0.02065 8.84155e-05 2337.46 285.404 5.25482 5.42795 -781.251 -1159.69 6.69852e+06 
295 -0.02055 8.84177e-05 2337.4 285.749 5.26131 5.43929 -803.016 -1191.94 6.84453e+06 
296 -0.02045 8.84203e-05 2337.34 286.139 5.26864 5.45251 -827.914 -1230.08 7.01257e+06 
297 -0.02035 8.84229e-05 2337.27 286.535 5.27609 5.46562 -853.156 -1267.12 7.1797e+06 
298 -0.02025 8.84251e-05 2337.21 286.926 5.28342 5.47805 -877.91 -1303.19 7.34614e+06 
299 -0.02015 8.84287e-05 2337.14 287.351 5.29146 5.49252 -904.802 -1343.86 7.52579e+06 
276 -0.02245 8.83845e-05 2338.27 280.321 5.15944 5.26033 -458.587 -680.351 4.53783e+06 
277 -0.02235 8.83858e-05 2338.23 280.534 5.16342 5.26739 -471.877 -700.186 4.62595e+06 
278 -0.02225 8.8388e-05 2338.2 280.749 5.16751 5.27445 -485.522 -720.459 4.71934e+06 
279 -0.02215 8.83896e-05 2338.16 280.962 5.17153 5.28174 -498.942 -741.068 4.80979e+06 
280 -0.02205 8.83908e-05 2338.13 281.222 5.17638 5.29032 -515.887 -765.971 4.92436e+06 
281 -0.02195 8.83912e-05 2338.08 281.454 5.18068 5.29758 -530.297 -786.675 5.01788e+06 
282 -0.02185 8.83935e-05 2338.05 281.701 5.18536 5.30579 -545.969 -810.058 5.12388e+06 
283 -0.02175 8.83964e-05 2338 282.003 5.19108 5.31573 -565.44 -837.831 5.25026e+06 
284 -0.02165 8.83963e-05 2337.96 282.255 5.19571 5.32377 -581.245 -861.201 5.35643e+06 
285 -0.02155 8.83984e-05 2337.92 282.506 5.20047 5.33228 -597.19 -885.844 5.46679e+06 
286 -0.02145 8.84009e-05 2337.88 282.776 5.20557 5.34132 -614.286 -911.534 5.58216e+06 
287 -0.02135 8.84009e-05 2337.83 283.042 5.21048 5.35003 -631.354 -937.599 5.70103e+06 
288 -0.02125 8.84035e-05 2337.78 283.362 5.21653 5.36033 -651.415 -966.254 5.83065e+06 
301 -0.01995 8.84335e-05 2337 288.245 5.30821 5.52186 -961.786 -1427.78 7.90482e+06 
321 -0.01795 8.85106e-05 2334.97 300.803 5.5443 5.93976 -1758.5 -2615.4 1.32023e+07 
322 -0.01785 8.85148e-05 2334.84 301.681 5.56076 5.96855 -1814.4 -2697.52 1.35736e+07 
323 -0.01775 8.85212e-05 2334.68 302.636 5.57875 6.00029 -1874.78 -2785.99 1.39647e+07 
324 -0.01765 8.85272e-05 2334.53 303.551 5.596 6.03051 -1932.72 -2871.79 1.43472e+07 
325 -0.01755 8.85318e-05 2334.39 304.434 5.61257 6.05989 -1988.72 -2956.53 1.47285e+07 
302 -0.01985 8.84359e-05 2336.92 288.718 5.31706 5.5373 -991.635 -1471.48 8.1022e+06 
303 -0.01975 8.84383e-05 2336.85 289.192 5.32595 5.55333 -1021.79 -1517.15 8.30237e+06 
304 -0.01965 8.84419e-05 2336.77 289.679 5.33513 5.56923 -1053.08 -1563.42 8.51491e+06 
305 -0.01955 8.84452e-05 2336.69 290.199 5.34492 5.58643 -1085.74 -1611.37 8.72756e+06 
306 -0.01945 8.84477e-05 2336.6 290.693 5.35416 5.60313 -1117.19 -1659.51 8.94175e+06 
307 -0.01935 8.84511e-05 2336.53 291.2 5.36369 5.61984 -1149.3 -1707.7 9.15893e+06 
308 -0.01925 8.84551e-05 2336.43 291.764 5.37434 5.6384 -1185.23 -1760.24 9.39669e+06 
309 -0.01915 8.84571e-05 2336.35 292.313 5.38457 5.65704 -1219.91 -1813.7 9.63086e+06 
310 -0.01905 8.8462e-05 2336.24 292.932 5.39627 5.67751 -1259.13 -1870.99 9.88632e+06 
311 -0.01895 8.84659e-05 2336.14 293.588 5.40859 5.69951 -1301.08 -1933.02 1.01623e+07 
312 -0.01885 8.84691e-05 2336.05 294.189 5.41986 5.71912 -1338.87 -1989.05 1.04146e+07 
313 -0.01875 8.84731e-05 2335.95 294.799 5.43134 5.7397 -1378.01 -2048.85 1.06823e+07 
314 -0.01865 8.84772e-05 2335.84 295.448 5.44355 5.76096 -1418.61 -2108.62 1.095e+07 
315 -0.01855 8.84811e-05 2335.73 296.16 5.45691 5.78457 -1464.42 -2176.41 1.12566e+07 
316 -0.01845 8.84859e-05 2335.6 296.889 5.47064 5.80929 -1510.49 -2245.69 1.15577e+07 
317 -0.01835 8.84902e-05 2335.5 297.596 5.48394 5.83241 -1555.07 -2311.55 1.18574e+07 
318 -0.01825 8.84944e-05 2335.37 298.347 5.49803 5.85806 -1602.98 -2384.52 1.21761e+07 
319 -0.01815 8.84998e-05 2335.24 299.158 5.51332 5.88441 -1654.38 -2458.92 1.25135e+07 
320 -0.01805 8.85044e-05 2335.11 299.972 5.52861 5.91145 -1705.85 -2535.7 1.28529e+07 
334 -0.01665 8.85937e-05 2332.77 314.432 5.80094 6.39528 -2622.2 -3902.35 1.89123e+07 
326 -0.01745 8.85383e-05 2334.23 305.43 5.63135 6.09347 -2052.11 -3051.35 1.51477e+07 
327 -0.01735 8.85439e-05 2334.07 306.437 5.65027 6.12718 -2115.57 -3145.95 1.55628e+07 
328 -0.01725 8.85507e-05 2333.89 307.502 5.67034 6.16253 -2183.23 -3246.06 1.60111e+07 
329 -0.01715 8.85576e-05 2333.73 308.525 5.68966 6.19757 -2248.09 -3345.53 1.64454e+07 
330 -0.01705 8.85638e-05 2333.54 309.665 5.71107 6.23581 -2320.74 -3453.28 1.6924e+07 
331 -0.01695 8.85723e-05 2333.35 310.83 5.73311 6.27422 -2394.28 -3560.81 1.74055e+07 
332 -0.01685 8.85787e-05 2333.16 312.017 5.75543 6.31422 -2469 -3671.98 1.78898e+07 
333 -0.01675 8.85858e-05 2332.97 313.231 5.77829 6.3542 -2546.66 -3787.12 1.8412e+07 
335 -0.01655 8.86022e-05 2332.55 315.739 5.82563 6.43897 -2705.06 -4025.72 1.94597e+07 
336 -0.01645 8.86105e-05 2332.33 317.151 5.85222 6.48611 -2794.73 -4157.41 2.00422e+07 
337 -0.01635 8.86182e-05 2332.1 318.545 5.87847 6.53266 -2882.39 -4287.75 2.06162e+07 
338 -0.01625 8.86279e-05 2331.88 319.927 5.9046 6.57954 -2970.47 -4420.79 2.12045e+07 
339 -0.01615 8.86361e-05 2331.63 321.398 5.93231 6.62896 -3063.28 -4559.55 2.1814e+07 
340 -0.01605 8.86472e-05 2331.37 323.02 5.96299 6.68372 -3165.98 -4711.64 2.24797e+07 
341 -0.01595 8.86569e-05 2331.11 324.613 5.99305 6.73693 -3267.02 -4861.19 2.31439e+07 
342 -0.01585 8.86665e-05 2330.85 326.214 6.02326 6.79046 -3368.29 -5012.2 2.38129e+07 