TITLE = "DSMC"
VARIABLES = "ID" "X" "rho" "v1" "Ttrans" "p" "p1" "q1" "mv1v1v1" "mvvv1v1"
ZONE T="Ma=2.4", I=1000, J=1, K=1, F=POINT
1 -0.06995 8.83433e-05 738.749 273.178 5.02561 5.02501 -0.389779 -0.840185 1428220.0
2 -0.06985 8.8344e-05 738.743 273.186 5.02579 5.02539 -0.532544 -1.00027 1428500.0
3 -0.06975 8.83449e-05 738.736 273.193 5.02599 5.02588 -0.595478 -1.22173 1428710.0
4 -0.06965 8.83447e-05 738.736 273.195 5.026 5.02605 -0.622481 -1.24183 1428830.0
5 -0.06955 8.83468e-05 738.725 273.201 5.02624 5.02672 -0.701962 -1.47477 1429190.0
6 -0.06945 8.83446e-05 738.739 273.18 5.02573 5.02574 -0.350321 -0.980028 1428440.0
7 -0.06935 8.8346e-05 738.729 273.191 5.02601 5.0264 -0.527889 -1.24784 1428960.0
8 -0.06925 8.83452e-05 738.735 273.179 5.02574 5.02595 -0.342965 -1.03722 1428560.0
9 -0.06915 8.83458e-05 738.728 273.188 5.02595 5.02635 -0.477224 -1.18163 1428910.0
10 -0.06905 8.83454e-05 738.738 273.184 5.02585 5.02591 -0.437422 -1.03966 1428710.0
11 -0.06895 8.83437e-05 738.744 273.171 5.0255 5.02516 -0.242207 -0.682713 1428240.0
12 -0.06885 8.8344e-05 738.749 273.169 5.02548 5.02517 -0.209215 -0.654318 1428240.0
13 -0.06875 8.83437e-05 738.744 273.17 5.02549 5.02521 -0.184003 -0.636673 1428240.0
14 -0.06865 8.83436e-05 738.749 273.162 5.02534 5.02495 -0.117233 -0.541914 1428060.0
15 -0.06855 8.83465e-05 738.725 273.196 5.02612 5.0266 -0.592477 -1.34843 1429270.0
16 -0.06845 8.83427e-05 738.757 273.166 5.02535 5.02465 -0.161755 -0.401451 1428100.0
17 -0.06835 8.83432e-05 738.75 273.168 5.02542 5.02489 -0.203102 -0.571557 1428260.0
18 -0.06825 8.83434e-05 738.748 273.174 5.02554 5.02504 -0.318114 -0.675829 1428420.0
19 -0.06815 8.83433e-05 738.745 273.185 5.02575 5.02531 -0.525883 -0.874769 1428790.0
20 -0.06805 8.83435e-05 738.744 273.185 5.02575 5.02542 -0.513876 -0.944489 1428820.0
21 -0.06795 8.83437e-05 738.746 273.178 5.02564 5.02522 -0.435868 -0.826794 1428620.0
22 -0.06785 8.83429e-05 738.749 273.174 5.02552 5.02504 -0.322014 -0.678444 1428410.0
23 -0.06775 8.83425e-05 738.755 273.172 5.02546 5.02473 -0.337295 -0.570221 1428380.0
24 -0.06765 8.83438e-05 738.743 273.181 5.02569 5.02527 -0.450793 -0.83611 1428700.0
25 -0.06755 8.8344e-05 738.738 273.189 5.02586 5.02572 -0.615384 -1.06066 1429130.0
26 -0.06745 8.83435e-05 738.748 273.18 5.02566 5.02507 -0.399648 -0.66928 1428650.0
27 -0.06735 8.83436e-05 738.744 273.178 5.02563 5.02534 -0.413479 -0.783826 1428760.0
28 -0.06725 8.83439e-05 738.741 273.183 5.02575 5.02547 -0.510995 -0.871632 1428980.0
29 -0.06715 8.83438e-05 738.746 273.181 5.02569 5.02535 -0.409613 -0.72588 1428850.0
30 -0.06705 8.83446e-05 738.741 273.184 5.0258 5.02548 -0.502308 -0.799676 1429000.0
31 -0.06695 8.83438e-05 738.746 273.172 5.02554 5.0252 -0.257513 -0.480725 1428640.0
32 -0.06685 8.83438e-05 738.745 273.172 5.02553 5.02537 -0.291891 -0.592182 1428720.0
33 -0.06675 8.83441e-05 738.746 273.171 5.02554 5.02521 -0.246758 -0.506106 1428640.0
34 -0.06665 8.83429e-05 738.749 273.169 5.02543 5.02502 -0.278957 -0.510074 1428640.0
35 -0.06655 8.83422e-05 738.763 273.156 5.02515 5.02419 -0.00369085 -0.0266557 1428030.0
36 -0.06645 8.83421e-05 738.756 273.161 5.02524 5.02453 -0.082782 -0.193082 1428260.0
37 -0.06635 8.83433e-05 738.754 273.158 5.02524 5.02469 0.00633697 -0.139706 1428220.0
38 -0.06625 8.83433e-05 738.749 273.162 5.02531 5.02484 -0.0536901 -0.215104 1428320.0
39 -0.06615 8.83428e-05 738.754 273.159 5.02523 5.02461 -0.0303598 -0.161062 1428260.0
40 -0.06605 8.83435e-05 738.751 273.166 5.0254 5.02497 -0.131908 -0.377462 1428430.0
41 -0.06595 8.83427e-05 738.753 273.163 5.02531 5.02475 -0.0904702 -0.273154 1428310.0
42 -0.06585 8.83446e-05 738.735 273.184 5.0258 5.0259 -0.46226 -0.934737 1429210.0
43 -0.06575 8.83435e-05 738.752 273.166 5.0254 5.02484 -0.148266 -0.346315 1428430.0
44 -0.06565 8.83421e-05 738.758 273.16 5.02521 5.02449 -0.0533947 -0.182403 1428220.0
45 -0.06555 8.83424e-05 738.758 273.155 5.02515 5.02442 0.0258457 -0.085949 1428140.0
46 -0.06545 8.83424e-05 738.753 273.158 5.02519 5.02462 -0.0238458 -0.186768 1428260.0
47 -0.06535 8.8344e-05 738.746 273.17 5.02551 5.02523 -0.203638 -0.510426 1428770.0
48 -0.06525 8.8343e-05 738.753 273.158 5.02522 5.02468 -0.0269226 -0.168633 1428370.0
49 -0.06515 8.83441e-05 738.745 273.171 5.02554 5.02526 -0.260189 -0.432704 1428860.0
50 -0.06505 8.83438e-05 738.751 273.166 5.02542 5.02488 -0.156357 -0.239313 1428610.0
51 -0.06495 8.83448e-05 738.743 273.174 5.02562 5.02532 -0.259841 -0.462986 1428900.0
52 -0.06485 8.83446e-05 738.738 273.174 5.02561 5.0255 -0.318033 -0.584419 1429020.0
53 -0.06475 8.83449e-05 738.737 273.179 5.02573 5.0257 -0.330437 -0.643892 1429120.0
54 -0.06465 8.83433e-05 738.751 273.162 5.02532 5.02464 -0.132386 -0.213231 1428480.0
55 -0.06455 8.83442e-05 738.747 273.167 5.02546 5.02513 -0.148573 -0.378377 1428700.0
56 -0.06445 8.83444e-05 738.746 273.168 5.02548 5.02528 -0.247677 -0.537621 1428910.0
57 -0.06435 8.83436e-05 738.749 273.164 5.02538 5.02493 -0.192291 -0.348133 1428740.0
58 -0.06425 8.83431e-05 738.754 273.16 5.02528 5.02463 -0.127207 -0.113909 1428580.0
59 -0.06415 8.83432e-05 738.749 273.164 5.02535 5.025 -0.147836 -0.277026 1428700.0
60 -0.06405 8.83428e-05 738.757 273.153 5.02512 5.02451 -0.00825494 -0.0714945 1428330.0
61 -0.06395 8.83426e-05 738.759 273.15 5.02507 5.02442 0.0506677 0.0111429 1428270.0
62 -0.06385 8.83428e-05 738.754 273.154 5.02513 5.02449 0.0278822 -0.0105762 1428330.0
63 -0.06375 8.83444e-05 738.735 273.173 5.02558 5.02573 -0.277319 -0.571356 1429090.0
64 -0.06365 8.83453e-05 738.737 273.173 5.02563 5.02575 -0.279628 -0.517672 1429070.0
65 -0.06355 8.8345e-05 738.736 273.176 5.02567 5.02574 -0.359366 -0.600322 1429280.0
66 -0.06345 8.8345e-05 738.736 273.18 5.02575 5.02566 -0.401759 -0.602644 1429330.0
67 -0.06335 8.83438e-05 738.744 273.173 5.02555 5.02527 -0.315094 -0.427374 1429130.0
68 -0.06325 8.8344e-05 738.738 273.177 5.02564 5.02561 -0.427791 -0.662259 1429320.0
69 -0.06315 8.83459e-05 738.732 273.189 5.02597 5.02609 -0.59337 -0.891778 1429710.0
70 -0.06305 8.83435e-05 738.746 273.173 5.02554 5.025 -0.379449 -0.327684 1429090.0
71 -0.06295 8.83451e-05 738.735 273.186 5.02586 5.02601 -0.546113 -0.778641 1429640.0
72 -0.06285 8.8343e-05 738.749 273.173 5.0255 5.02499 -0.348861 -0.262017 1429070.0
73 -0.06275 8.83412e-05 738.759 273.162 5.0252 5.0244 -0.208382 -0.0194602 1428680.0
74 -0.06265 8.83426e-05 738.755 273.166 5.02535 5.02485 -0.205599 -0.155859 1428890.0
75 -0.06255 8.83433e-05 738.747 273.167 5.02541 5.02505 -0.26588 -0.280771 1428970.0
76 -0.06245 8.83425e-05 738.751 273.163 5.02529 5.02495 -0.148344 -0.0954082 1428810.0
77 -0.06235 8.83407e-05 738.767 273.144 5.02483 5.02385 0.139803 0.394335 1428080.0
78 -0.06225 8.83411e-05 738.761 273.145 5.02489 5.02426 0.122238 0.261871 1428270.0
79 -0.06215 8.83408e-05 738.759 273.148 5.02493 5.02425 0.109749 0.245562 1428310.0
80 -0.06205 8.83417e-05 738.756 273.155 5.0251 5.02463 -0.0656122 0.00552823 1428630.0
81 -0.06195 8.83423e-05 738.754 273.156 5.02516 5.0249 -0.0101128 -0.0162607 1428640.0
82 -0.06185 8.83425e-05 738.745 273.16 5.02523 5.02516 -0.146142 -0.217246 1428880.0
83 -0.06175 8.83418e-05 738.754 273.154 5.02509 5.02464 0.0170896 0.0997981 1428530.0
84 -0.06165 8.83424e-05 738.755 273.152 5.02508 5.0247 -0.00206136 0.0437228 1428540.0
85 -0.06155 8.83448e-05 738.734 273.177 5.02568 5.02593 -0.369698 -0.556316 1429430.0
86 -0.06145 8.83433e-05 738.744 273.165 5.02537 5.02533 -0.162861 -0.181333 1429030.0
87 -0.06135 8.83445e-05 738.738 273.169 5.02552 5.02575 -0.241748 -0.388961 1429270.0
88 -0.06125 8.83448e-05 738.736 273.173 5.0256 5.02595 -0.302745 -0.523713 1429360.0
89 -0.06115 8.83448e-05 738.741 273.17 5.02556 5.02572 -0.278039 -0.3734 1429280.0
90 -0.06105 8.83444e-05 738.739 273.174 5.0256 5.02579 -0.337926 -0.461759 1429360.0
91 -0.06095 8.83436e-05 738.746 273.168 5.02545 5.02536 -0.249827 -0.369959 1429150.0
92 -0.06085 8.83434e-05 738.746 273.172 5.0255 5.02536 -0.313661 -0.376519 1429260.0
93 -0.06075 8.83416e-05 738.765 273.153 5.02506 5.0242 -0.031338 0.257159 1428500.0
94 -0.06065 8.83426e-05 738.753 273.162 5.02527 5.02473 -0.207554 -0.125744 1428910.0
95 -0.06055 8.83429e-05 738.757 273.165 5.02535 5.02469 -0.191617 -0.119525 1428870.0
96 -0.06045 8.8342e-05 738.759 273.167 5.02534 5.02456 -0.302158 -0.195882 1428950.0
97 -0.06035 8.83407e-05 738.764 273.16 5.02514 5.02397 -0.18355 0.0843887 1428630.0
98 -0.06025 8.83419e-05 738.763 273.161 5.02521 5.02442 -0.150063 -0.0740505 1428740.0
99 -0.06015 8.83425e-05 738.759 273.164 5.0253 5.02457 -0.219983 -0.200217 1428900.0
100 -0.06005 8.83431e-05 738.75 273.169 5.02544 5.02518 -0.249591 -0.447112 1429130.0
101 -0.05995 8.83423e-05 738.747 273.168 5.02537 5.02516 -0.246377 -0.493947 1429120.0
102 -0.05985 8.83434e-05 738.749 273.165 5.02538 5.02515 -0.21149 -0.539131 1429070.0
103 -0.05975 8.83408e-05 738.764 273.154 5.02503 5.02415 0.00444608 -0.000286444 1428540.0
104 -0.05965 8.83416e-05 738.759 273.153 5.02505 5.02439 -0.0152029 -0.136382 1428590.0
105 -0.05955 8.83421e-05 738.756 273.163 5.02527 5.02469 -0.183194 -0.295225 1428900.0
106 -0.05945 8.83417e-05 738.761 273.153 5.02507 5.02427 -0.0323771 -0.0661748 1428490.0
107 -0.05935 8.83416e-05 738.758 273.16 5.02519 5.02448 -0.173338 -0.237285 1428810.0
108 -0.05925 8.8342e-05 738.758 273.159 5.02519 5.02442 -0.12197 -0.256557 1428670.0
109 -0.05915 8.83427e-05 738.748 273.169 5.0254 5.02504 -0.294928 -0.594836 1429170.0
110 -0.05905 8.83429e-05 738.751 273.17 5.02544 5.02489 -0.320527 -0.452023 1429200.0
111 -0.05895 8.83402e-05 738.771 273.148 5.02488 5.02365 0.00161809 0.173169 1428400.0
112 -0.05885 8.83403e-05 738.768 273.157 5.02506 5.02403 -0.0884894 0.0345349 1428660.0
113 -0.05875 8.83411e-05 738.766 273.155 5.02506 5.02399 -0.0917172 -0.00132092 1428630.0
114 -0.05865 8.83415e-05 738.755 273.165 5.02527 5.02467 -0.25447 -0.337316 1429100.0
115 -0.05855 8.83415e-05 738.759 273.161 5.02519 5.02459 -0.19996 -0.291047 1428990.0
116 -0.05845 8.83425e-05 738.75 273.173 5.02548 5.02507 -0.375776 -0.457384 1429360.0
117 -0.05835 8.83435e-05 738.741 273.18 5.02567 5.02553 -0.504083 -0.695665 1429670.0
118 -0.05825 8.8343e-05 738.746 273.178 5.02559 5.02535 -0.516827 -0.574266 1429600.0
119 -0.05815 8.83424e-05 738.752 273.172 5.02546 5.02498 -0.400444 -0.423015 1429320.0
120 -0.05805 8.83413e-05 738.754 273.167 5.02531 5.02477 -0.343273 -0.311597 1429170.0
121 -0.05795 8.8343e-05 738.747 273.173 5.02551 5.0252 -0.383427 -0.389926 1429340.0
122 -0.05785 8.83418e-05 738.754 273.162 5.02524 5.02479 -0.222918 -0.255562 1428980.0
123 -0.05775 8.83419e-05 738.75 273.166 5.02532 5.02493 -0.280507 -0.285694 1429150.0
124 -0.05765 8.83413e-05 738.761 273.157 5.02511 5.02427 -0.159999 0.0209975 1428700.0
125 -0.05755 8.83417e-05 738.754 273.169 5.02535 5.02485 -0.308879 -0.241179 1429190.0
126 -0.05745 8.83438e-05 738.736 273.18 5.02568 5.02574 -0.474411 -0.675505 1429690.0
127 -0.05735 8.83435e-05 738.743 273.175 5.02557 5.02553 -0.452572 -0.632535 1429550.0
128 -0.05725 8.83424e-05 738.748 273.17 5.02541 5.02518 -0.349731 -0.473699 1429320.0
129 -0.05715 8.83444e-05 738.732 273.179 5.0257 5.02598 -0.453154 -0.747587 1429740.0
130 -0.05705 8.83426e-05 738.748 273.17 5.02542 5.02529 -0.301765 -0.44221 1429400.0
131 -0.05695 8.83433e-05 738.746 273.167 5.02541 5.02528 -0.247596 -0.398753 1429310.0
132 -0.05685 8.83408e-05 738.761 273.15 5.02495 5.02421 -0.0474554 -0.00860321 1428730.0
133 -0.05675 8.83422e-05 738.759 273.157 5.02517 5.02445 -0.140817 -0.0822337 1428940.0
134 -0.05665 8.83401e-05 738.766 273.152 5.02496 5.02399 -0.0822052 0.101994 1428720.0
135 -0.05655 8.83433e-05 738.748 273.167 5.02541 5.02507 -0.372927 -0.420441 1429360.0
136 -0.05645 8.83434e-05 738.75 273.17 5.02547 5.02513 -0.339698 -0.341256 1429400.0
137 -0.05635 8.83403e-05 738.766 273.144 5.02482 5.02384 0.0615354 0.238934 1428420.0
138 -0.05625 8.83403e-05 738.774 273.131 5.02458 5.0234 0.246389 0.540139 1428000.0
139 -0.05615 8.83432e-05 738.751 273.153 5.02514 5.02469 -0.0942129 -0.0737482 1428890.0
140 -0.05605 8.8343e-05 738.754 273.159 5.02525 5.02474 -0.179466 -0.132511 1429030.0
141 -0.05595 8.83434e-05 738.752 273.157 5.02523 5.02469 -0.162755 -0.0991849 1429020.0
142 -0.05585 8.83439e-05 738.744 273.162 5.02536 5.02517 -0.174192 -0.182915 1429220.0
143 -0.05575 8.83423e-05 738.76 273.142 5.02489 5.02416 0.109876 0.284066 1428510.0
144 -0.05565 8.83425e-05 738.756 273.151 5.02507 5.02455 -0.0547224 0.0587818 1428890.0
145 -0.05555 8.83418e-05 738.759 273.144 5.0249 5.02418 0.0849822 0.262085 1428580.0
146 -0.05545 8.8343e-05 738.753 273.154 5.02515 5.02474 -0.0179895 0.0938199 1428930.0
147 -0.05535 8.83432e-05 738.752 273.151 5.02512 5.02472 -0.0128936 0.0742721 1428890.0
148 -0.05525 8.83441e-05 738.748 273.158 5.0253 5.02506 -0.117796 -0.0973425 1429140.0
149 -0.05515 8.83453e-05 738.728 273.179 5.02575 5.02622 -0.463531 -0.755659 1429990.0
150 -0.05505 8.83452e-05 738.738 273.175 5.02567 5.02578 -0.365156 -0.441939 1429680.0
151 -0.05495 8.83426e-05 738.754 273.157 5.02519 5.02474 -0.120186 0.0841462 1429010.0
152 -0.05485 8.83429e-05 738.75 273.152 5.02512 5.02478 -0.0644039 -0.0235643 1428940.0
153 -0.05475 8.83433e-05 738.749 273.16 5.02528 5.02504 -0.113844 -0.0385089 1429110.0
154 -0.05465 8.83442e-05 738.736 273.168 5.02548 5.02581 -0.259174 -0.476113 1429550.0
155 -0.05455 8.83433e-05 738.747 273.163 5.02534 5.02514 -0.197493 -0.0954139 1429300.0
156 -0.05445 8.83414e-05 738.758 273.149 5.02498 5.02435 -0.0129607 0.238188 1428800.0
157 -0.05435 8.83421e-05 738.76 273.153 5.02509 5.02448 -0.0330019 0.190822 1428910.0
158 -0.05425 8.83402e-05 738.769 273.141 5.02475 5.02371 0.146106 0.550871 1428460.0
159 -0.05415 8.83428e-05 738.756 273.154 5.02515 5.02459 -0.102146 0.0633858 1429030.0
160 -0.05405 8.83412e-05 738.766 273.145 5.0249 5.02388 0.108811 0.467518 1428490.0
161 -0.05395 8.83413e-05 738.764 273.15 5.02498 5.02409 -0.0643508 0.230169 1428710.0
162 -0.05385 8.83411e-05 738.763 273.15 5.02498 5.02415 0.00206913 0.239112 1428710.0
163 -0.05375 8.83422e-05 738.755 273.157 5.02517 5.02453 -0.134207 0.021863 1429000.0
164 -0.05365 8.8343e-05 738.747 273.174 5.02552 5.0252 -0.422378 -0.301788 1429590.0
165 -0.05355 8.83433e-05 738.742 273.174 5.02554 5.02538 -0.356163 -0.389257 1429580.0
166 -0.05345 8.83438e-05 738.744 273.171 5.02551 5.02532 -0.33263 -0.31603 1429440.0
167 -0.05335 8.83438e-05 738.741 273.175 5.02559 5.02552 -0.367033 -0.341619 1429500.0
168 -0.05325 8.83433e-05 738.747 273.165 5.02538 5.0251 -0.274982 -0.140556 1429250.0
169 -0.05315 8.83433e-05 738.747 273.167 5.0254 5.02515 -0.249119 -0.092292 1429230.0
170 -0.05305 8.83428e-05 738.75 273.162 5.02529 5.02494 -0.159446 0.0456175 1429020.0
171 -0.05295 8.83436e-05 738.746 273.166 5.02541 5.02513 -0.234357 -0.169141 1429170.0
172 -0.05285 8.83429e-05 738.747 273.162 5.0253 5.02501 -0.178047 -0.148585 1429000.0
173 -0.05275 8.83431e-05 738.754 273.159 5.02525 5.02469 -0.134097 -0.000202031 1428850.0
174 -0.05265 8.83416e-05 738.757 273.157 5.02513 5.02434 -0.115754 0.110827 1428720.0
175 -0.05255 8.83419e-05 738.762 273.16 5.0252 5.02424 -0.171606 0.121443 1428770.0
176 -0.05245 8.83417e-05 738.759 273.161 5.02521 5.0244 -0.177902 0.0891076 1428850.0
177 -0.05235 8.8343e-05 738.747 273.168 5.02542 5.025 -0.303743 -0.207337 1429200.0
178 -0.05225 8.83437e-05 738.745 273.172 5.02552 5.02537 -0.329902 -0.348956 1429390.0
179 -0.05215 8.83427e-05 738.751 273.159 5.02524 5.02495 -0.118084 -0.0963616 1428970.0
180 -0.05205 8.83437e-05 738.746 273.162 5.02535 5.02509 -0.149615 -0.177433 1429050.0
181 -0.05195 8.8343e-05 738.75 273.157 5.02522 5.02481 -0.0843316 -0.0444979 1428930.0
182 -0.05185 8.83421e-05 738.756 273.153 5.02508 5.02454 -0.0270688 0.0268424 1428780.0
183 -0.05175 8.83413e-05 738.765 273.146 5.02491 5.02401 0.0548515 0.200484 1428500.0
184 -0.05165 8.83411e-05 738.764 273.145 5.02489 5.024 0.0621541 0.233295 1428470.0
185 -0.05155 8.83415e-05 738.761 273.149 5.02498 5.02419 0.033107 0.15701 1428590.0
186 -0.05145 8.83418e-05 738.757 273.155 5.0251 5.02448 -0.0923152 -0.0654686 1428800.0
187 -0.05135 8.83402e-05 738.766 273.142 5.02478 5.02384 0.127663 0.24064 1428300.0
188 -0.05125 8.83417e-05 738.755 273.152 5.02504 5.02464 -0.00415407 -0.0223498 1428780.0
189 -0.05115 8.8343e-05 738.746 273.158 5.02522 5.02526 -0.0788366 -0.344573 1429060.0
190 -0.05105 8.8341e-05 738.754 273.152 5.025 5.02466 -0.0163949 -0.0425191 1428780.0
191 -0.05095 8.83439e-05 738.736 273.173 5.02555 5.02594 -0.327052 -0.68119 1429560.0
192 -0.05085 8.83424e-05 738.748 273.164 5.0253 5.02514 -0.239525 -0.272408 1429190.0
193 -0.05075 8.83432e-05 738.744 273.163 5.02533 5.02535 -0.153706 -0.232284 1429170.0
194 -0.05065 8.83432e-05 738.742 273.163 5.02532 5.02542 -0.172829 -0.291009 1429200.0
195 -0.05055 8.8342e-05 738.754 273.153 5.02508 5.02471 -0.0301375 0.0618974 1428830.0
196 -0.05045 8.83407e-05 738.762 273.142 5.0248 5.02431 0.179952 0.257542 1428440.0
197 -0.05035 8.83416e-05 738.751 273.151 5.02501 5.02486 0.0222126 -0.0715238 1428810.0
198 -0.05025 8.83423e-05 738.751 273.159 5.02521 5.02511 -0.0817237 -0.18696 1429120.0
199 -0.05015 8.83425e-05 738.749 273.157 5.02519 5.02513 -0.136414 -0.192953 1429210.0
200 -0.05005 8.8342e-05 738.752 273.151 5.02505 5.02476 0.0399915 0.0927921 1428890.0
201 -0.04995 8.83416e-05 738.755 273.146 5.02492 5.02479 0.134797 0.0950335 1428730.0
202 -0.04985 8.83424e-05 738.75 273.156 5.02516 5.0251 -0.0480982 -0.0527363 1429090.0
203 -0.04975 8.83415e-05 738.755 273.154 5.02506 5.02491 -0.0154201 0.00366533 1429020.0
204 -0.04965 8.83426e-05 738.747 273.157 5.02518 5.02512 -0.0761792 -0.11432 1429110.0
205 -0.04955 8.83426e-05 738.743 273.164 5.02532 5.02527 -0.178348 -0.201114 1429340.0
206 -0.04945 8.83421e-05 738.749 273.162 5.02525 5.02505 -0.188729 -0.139394 1429320.0
207 -0.04935 8.83414e-05 738.757 273.15 5.02498 5.02463 0.0486507 0.161661 1428870.0
208 -0.04925 8.83426e-05 738.742 273.162 5.02528 5.0255 -0.198968 -0.307249 1429410.0
209 -0.04915 8.83431e-05 738.738 273.165 5.02537 5.02564 -0.203476 -0.370375 1429460.0
210 -0.04905 8.8343e-05 738.743 273.169 5.02543 5.02556 -0.262979 -0.302124 1429480.0
211 -0.04895 8.83412e-05 738.758 273.148 5.02495 5.02452 0.0417896 0.211278 1428760.0
212 -0.04885 8.83422e-05 738.744 273.161 5.02524 5.02537 -0.154889 -0.236233 1429260.0
213 -0.04875 8.83424e-05 738.744 273.16 5.02522 5.02538 -0.106828 -0.122428 1429200.0
214 -0.04865 8.83439e-05 738.73 273.177 5.02564 5.02638 -0.401274 -0.663198 1429950.0
215 -0.04855 8.83424e-05 738.74 273.167 5.02537 5.0257 -0.28262 -0.401049 1429580.0
216 -0.04845 8.83425e-05 738.744 273.16 5.02523 5.02542 -0.0613107 -0.142241 1429270.0
217 -0.04835 8.83423e-05 738.744 273.16 5.02523 5.02534 -0.109275 -0.108214 1429330.0
218 -0.04825 8.83417e-05 738.751 273.152 5.02504 5.02493 0.0316533 0.139405 1429010.0
219 -0.04815 8.83423e-05 738.745 273.159 5.0252 5.02533 -0.0741195 -0.0793045 1429260.0
220 -0.04805 8.83425e-05 738.747 273.155 5.02514 5.02521 -0.0161251 -0.0815352 1429120.0
221 -0.04795 8.83418e-05 738.752 273.149 5.02499 5.02501 0.110004 0.00412166 1428930.0
222 -0.04785 8.83422e-05 738.744 273.159 5.0252 5.0255 -0.0535198 -0.221839 1429330.0
223 -0.04775 8.83434e-05 738.737 273.16 5.0253 5.02581 -0.0960883 -0.378792 1429450.0
224 -0.04765 8.8342e-05 738.751 273.152 5.02506 5.02515 0.0353497 -0.0635928 1429140.0
225 -0.04755 8.834e-05 738.764 273.142 5.02476 5.0243 0.174367 0.28636 1428660.0
226 -0.04745 8.83402e-05 738.767 273.138 5.0247 5.02412 0.231027 0.409205 1428510.0
227 -0.04735 8.83405e-05 738.766 273.142 5.02479 5.0241 0.228224 0.471152 1428550.0
228 -0.04725 8.83404e-05 738.767 273.138 5.02471 5.02407 0.218008 0.486057 1428550.0
229 -0.04715 8.83402e-05 738.762 273.146 5.02485 5.02432 0.132436 0.18837 1428690.0
230 -0.04705 8.83408e-05 738.76 273.157 5.02508 5.02468 -0.0908409 -0.0925907 1429160.0
231 -0.04695 8.83424e-05 738.748 273.169 5.02539 5.02543 -0.287221 -0.535878 1429690.0
232 -0.04685 8.83416e-05 738.753 273.157 5.02514 5.02493 -0.0981564 -0.253373 1429320.0
233 -0.04675 8.83399e-05 738.771 273.141 5.02473 5.024 0.136957 0.18994 1428680.0
234 -0.04665 8.83398e-05 738.771 273.137 5.02466 5.02388 0.222077 0.269887 1428480.0
235 -0.04655 8.83401e-05 738.766 273.144 5.0248 5.02414 0.109651 0.0634078 1428650.0
236 -0.04645 8.83408e-05 738.764 273.148 5.02492 5.02429 0.0504931 -0.00690924 1428810.0
237 -0.04635 8.83411e-05 738.764 273.154 5.02504 5.02452 -0.0569734 -0.120477 1429030.0
238 -0.04625 8.83403e-05 738.768 273.149 5.02492 5.02412 -0.00192995 0.0569124 1428810.0
239 -0.04615 8.83411e-05 738.758 273.16 5.02516 5.02471 -0.14604 -0.15014 1429180.0
240 -0.04605 8.83409e-05 738.763 273.159 5.02513 5.02451 -0.162559 0.026924 1429210.0
241 -0.04595 8.83399e-05 738.765 273.158 5.02505 5.0244 -0.136829 0.0817369 1429130.0
242 -0.04585 8.83402e-05 738.764 273.155 5.02502 5.02445 -0.0555855 0.101464 1429030.0
243 -0.04575 8.83394e-05 738.773 273.14 5.02468 5.0238 0.187106 0.496804 1428470.0
244 -0.04565 8.83393e-05 738.776 273.137 5.02463 5.02352 0.240045 0.592739 1428350.0
245 -0.04555 8.834e-05 738.766 273.149 5.02489 5.02432 0.0592794 0.22608 1428910.0
246 -0.04545 8.83409e-05 738.76 273.151 5.02498 5.02483 0.0218442 -0.0662064 1429110.0
247 -0.04535 8.83393e-05 738.768 273.142 5.02471 5.02408 0.186996 0.268524 1428700.0
248 -0.04525 8.83402e-05 738.769 273.136 5.02466 5.02413 0.249225 0.332991 1428590.0
249 -0.04515 8.83415e-05 738.761 273.141 5.02483 5.02465 0.224439 0.172804 1428820.0
250 -0.04505 8.83425e-05 738.75 273.153 5.02511 5.02529 0.0310163 -0.122054 1429290.0
251 -0.04495 8.83413e-05 738.754 273.147 5.02492 5.02483 0.126402 0.0418461 1428960.0
252 -0.04485 8.83422e-05 738.755 273.154 5.0251 5.02505 0.0625478 0.0126484 1429130.0
253 -0.04475 8.83416e-05 738.758 273.148 5.02497 5.02478 0.11386 0.0924147 1429010.0
254 -0.04465 8.83407e-05 738.772 273.138 5.02472 5.02406 0.238013 0.430154 1428640.0
255 -0.04455 8.83397e-05 738.778 273.131 5.02454 5.02343 0.394743 0.7321 1428190.0
256 -0.04445 8.8341e-05 738.769 273.141 5.0248 5.02417 0.23446 0.391545 1428660.0
257 -0.04435 8.83414e-05 738.763 273.143 5.02486 5.02453 0.234409 0.187266 1428770.0
258 -0.04425 8.83407e-05 738.774 273.131 5.0246 5.02395 0.413979 0.431209 1428330.0
259 -0.04415 8.83417e-05 738.765 273.14 5.02481 5.02444 0.25659 0.221415 1428710.0
260 -0.04405 8.8342e-05 738.76 273.15 5.02502 5.02473 0.0602474 0.00897726 1429030.0
261 -0.04395 8.83426e-05 738.76 273.15 5.02505 5.02488 0.0971269 -0.0187576 1429020.0
262 -0.04385 8.83434e-05 738.75 273.162 5.02533 5.0254 -0.0972529 -0.311396 1429430.0
263 -0.04375 8.83429e-05 738.748 273.164 5.02534 5.02552 -0.187699 -0.398335 1429570.0
264 -0.04365 8.83431e-05 738.749 273.168 5.02542 5.02548 -0.214248 -0.341281 1429600.0
265 -0.04355 8.83426e-05 738.76 273.157 5.02519 5.02499 -0.033842 -0.0737202 1429210.0
266 -0.04345 8.8342e-05 738.759 273.152 5.02506 5.02475 -0.00830382 -0.0483337 1429100.0
267 -0.04335 8.83403e-05 738.771 273.14 5.02474 5.02395 0.20176 0.338896 1428610.0
268 -0.04325 8.83405e-05 738.769 273.142 5.02478 5.02412 0.204147 0.304821 1428680.0
269 -0.04315 8.83414e-05 738.766 273.143 5.02486 5.02417 0.118787 0.222406 1428770.0
270 -0.04305 8.83429e-05 738.747 273.166 5.02537 5.02543 -0.188737 -0.45391 1429560.0
271 -0.04295 8.83439e-05 738.747 273.161 5.02534 5.02551 -0.0972895 -0.363475 1429530.0
272 -0.04285 8.83429e-05 738.751 273.157 5.02521 5.02526 -0.0445189 -0.197554 1429300.0
273 -0.04275 8.83425e-05 738.754 273.155 5.02515 5.02505 -0.0425528 -0.0482464 1429230.0
274 -0.04265 8.83418e-05 738.754 273.16 5.0252 5.02509 -0.108862 -0.0861804 1429340.0
275 -0.04255 8.83443e-05 738.74 273.175 5.02561 5.02594 -0.357845 -0.513334 1429920.0
276 -0.04245 8.8343e-05 738.749 273.164 5.02534 5.02531 -0.170395 -0.273513 1429480.0
277 -0.04235 8.83422e-05 738.755 273.162 5.02526 5.02487 -0.1598 -0.138959 1429320.0
278 -0.04225 8.83429e-05 738.749 273.168 5.0254 5.02544 -0.286811 -0.48281 1429660.0
279 -0.04215 8.83429e-05 738.749 273.172 5.02548 5.02545 -0.311073 -0.380708 1429710.0
280 -0.04205 8.83412e-05 738.762 273.162 5.02519 5.02475 -0.183579 -0.0590536 1429350.0
281 -0.04195 8.83418e-05 738.753 273.164 5.02526 5.02514 -0.233966 -0.283102 1429440.0
282 -0.04185 8.83415e-05 738.758 273.158 5.02515 5.02491 -0.0863154 -0.187705 1429230.0
283 -0.04175 8.83401e-05 738.765 273.145 5.02483 5.02429 0.144157 0.175662 1428690.0
284 -0.04165 8.83406e-05 738.766 273.152 5.02498 5.02441 -0.00309831 0.122464 1428950.0
285 -0.04155 8.83429e-05 738.75 273.171 5.02546 5.02559 -0.289921 -0.445102 1429690.0
286 -0.04145 8.83406e-05 738.761 273.156 5.02505 5.02478 -0.0562542 -0.088976 1429140.0
287 -0.04135 8.83406e-05 738.769 273.149 5.02493 5.02431 0.0672558 0.187233 1428860.0
288 -0.04125 8.834e-05 738.764 273.151 5.02494 5.02442 0.0236617 0.0189557 1428930.0
289 -0.04115 8.83431e-05 738.748 273.17 5.02545 5.02572 -0.264943 -0.573671 1429740.0
290 -0.04105 8.83429e-05 738.749 273.171 5.02546 5.02562 -0.281301 -0.468559 1429660.0
291 -0.04095 8.83427e-05 738.744 273.174 5.02551 5.02577 -0.284079 -0.514681 1429740.0
292 -0.04085 8.83432e-05 738.743 273.173 5.02552 5.02593 -0.332352 -0.650136 1429830.0
293 -0.04075 8.83433e-05 738.748 273.169 5.02545 5.02563 -0.226461 -0.458521 1429560.0
294 -0.04065 8.83436e-05 738.741 273.175 5.02558 5.02599 -0.317633 -0.582666 1429810.0
295 -0.04055 8.83418e-05 738.756 273.158 5.02516 5.02502 -0.0514483 -0.114919 1429150.0
296 -0.04045 8.83413e-05 738.758 273.152 5.02503 5.02486 -1.34231e-05 -0.0460119 1428980.0
297 -0.04035 8.83396e-05 738.77 273.14 5.02471 5.02408 0.194686 0.316966 1428480.0
298 -0.04025 8.83401e-05 738.769 273.148 5.02489 5.02419 0.0628375 0.253511 1428720.0
299 -0.04015 8.83396e-05 738.776 273.144 5.02477 5.02392 0.117086 0.351027 1428590.0
300 -0.04005 8.83402e-05 738.765 273.151 5.02494 5.02445 0.0372648 0.0467796 1428810.0
301 -0.03995 8.83405e-05 738.766 273.154 5.02501 5.02432 -0.024939 0.10629 1428870.0
302 -0.03985 8.83406e-05 738.767 273.154 5.02502 5.02423 -0.075407 0.0555135 1428900.0
303 -0.03975 8.83391e-05 738.782 273.138 5.02465 5.02335 0.12916 0.452011 1428310.0
304 -0.03965 8.83392e-05 738.776 273.144 5.02475 5.02359 0.146123 0.448198 1428380.0
305 -0.03955 8.834e-05 738.774 273.143 5.02478 5.02367 0.126362 0.382133 1428370.0
306 -0.03945 8.83412e-05 738.761 273.156 5.02509 5.02453 -0.0993884 -0.109259 1428960.0
307 -0.03935 8.83397e-05 738.772 273.147 5.02484 5.0238 0.0535953 0.26026 1428530.0
308 -0.03925 8.83393e-05 738.779 273.148 5.02484 5.02349 0.0523393 0.497705 1428460.0
309 -0.03915 8.83411e-05 738.768 273.155 5.02506 5.02419 -0.0747073 0.200519 1428860.0
310 -0.03905 8.83415e-05 738.762 273.157 5.02513 5.02439 -0.088823 0.075607 1428970.0
311 -0.03895 8.83445e-05 738.737 273.18 5.02573 5.02601 -0.429904 -0.657774 1429930.0
312 -0.03885 8.83437e-05 738.747 273.172 5.02553 5.02548 -0.289509 -0.358526 1429630.0
313 -0.03875 8.83409e-05 738.768 273.154 5.02504 5.02408 -0.0490295 0.255053 1428860.0
314 -0.03865 8.83415e-05 738.768 273.158 5.02513 5.02416 -0.0901086 0.215178 1428950.0
315 -0.03855 8.83425e-05 738.758 273.156 5.02517 5.02476 -0.0926723 -0.0504803 1429080.0
316 -0.03845 8.83414e-05 738.766 273.144 5.02488 5.0242 0.112412 0.212342 1428630.0
317 -0.03835 8.83427e-05 738.764 273.15 5.02507 5.02453 0.0308636 0.150851 1428900.0
318 -0.03825 8.83418e-05 738.763 273.151 5.02503 5.02435 0.0209354 0.273035 1428820.0
319 -0.03815 8.83425e-05 738.759 273.156 5.02516 5.0246 -0.102322 0.048559 1429060.0
320 -0.03805 8.83429e-05 738.753 273.168 5.02541 5.0252 -0.25121 -0.258887 1429490.0
321 -0.03795 8.83406e-05 738.773 273.143 5.02482 5.02365 0.0905556 0.463596 1428560.0
322 -0.03785 8.83423e-05 738.759 273.161 5.02525 5.02464 -0.172002 -0.0550137 1429260.0
323 -0.03775 8.83421e-05 738.761 273.162 5.02525 5.02469 -0.181693 -0.115948 1429250.0
324 -0.03765 8.83422e-05 738.76 273.157 5.02517 5.02456 -0.103333 -0.0355779 1429070.0
325 -0.03755 8.83428e-05 738.756 273.165 5.02535 5.02502 -0.170821 -0.165739 1429370.0
326 -0.03745 8.83414e-05 738.758 273.162 5.02522 5.02467 -0.142673 -0.101363 1429240.0
327 -0.03735 8.83422e-05 738.757 273.166 5.02533 5.02476 -0.216263 -0.115366 1429320.0
328 -0.03725 8.83421e-05 738.762 273.163 5.02527 5.02453 -0.188091 0.0176501 1429230.0
329 -0.03715 8.83445e-05 738.735 273.19 5.0259 5.0263 -0.609847 -0.898556 1430320.0
330 -0.03705 8.83429e-05 738.753 273.165 5.02535 5.02514 -0.18976 -0.280656 1429400.0
331 -0.03695 8.83429e-05 738.75 273.17 5.02545 5.02529 -0.238942 -0.31026 1429550.0
332 -0.03685 8.83436e-05 738.749 273.168 5.02544 5.02527 -0.221673 -0.317342 1429490.0
333 -0.03675 8.83428e-05 738.751 273.166 5.02535 5.02511 -0.170674 -0.132499 1429430.0
334 -0.03665 8.83424e-05 738.756 273.162 5.02526 5.02498 -0.0982165 -0.0304917 1429230.0
335 -0.03655 8.8342e-05 738.759 273.152 5.02506 5.02465 0.0469846 0.205126 1428970.0
336 -0.03645 8.83409e-05 738.763 273.147 5.0249 5.02427 0.0980916 0.446518 1428770.0
337 -0.03635 8.83404e-05 738.769 273.141 5.02477 5.02402 0.184996 0.570962 1428610.0
338 -0.03625 8.83413e-05 738.757 273.148 5.02494 5.0248 0.131242 0.23225 1428920.0
339 -0.03615 8.83416e-05 738.754 273.146 5.02492 5.0249 0.206524 0.151922 1428930.0
340 -0.03605 8.83438e-05 738.735 273.167 5.02545 5.02611 -0.157331 -0.495726 1429810.0
341 -0.03595 8.83428e-05 738.744 273.159 5.02524 5.02554 0.010116 -0.216138 1429440.0
342 -0.03585 8.83415e-05 738.759 273.147 5.02495 5.02474 0.1861 0.158769 1428970.0
343 -0.03575 8.83414e-05 738.754 273.15 5.025 5.0248 0.107135 0.131764 1429120.0
344 -0.03565 8.83426e-05 738.748 273.159 5.02522 5.02533 0.0193701 -0.062148 1429380.0
345 -0.03555 8.83439e-05 738.738 273.166 5.02542 5.02596 -0.109847 -0.403035 1429780.0
346 -0.03545 8.8343e-05 738.738 273.171 5.02547 5.02595 -0.202595 -0.431365 1429900.0
347 -0.03535 8.83411e-05 738.758 273.15 5.02498 5.02462 0.132882 0.213603 1428980.0