TITLE = "DSMC"
VARIABLES = "ID" "X" "rho" "v1" "Ttrans" "p" "p1" "q1" "mv1v1v1" "mvvv1v1"
ZONE T="Ma=4.8_inv", I=800, J=1, K=1, F=POINT
800 -0.02995 0.000312851 -417.458 2200.64 143.369 143.365 -4.29502 -7.48908 328501000.0
799 -0.02985 0.000312835 -417.477 2200.67 143.364 143.361 0.415689 1.67647 328495000.0
798 -0.02975 0.000312835 -417.48 2200.64 143.362 143.362 -0.879602 1.08095 328500000.0
797 -0.02965 0.000312838 -417.473 2200.67 143.365 143.362 -0.532651 1.41839 328498000.0
796 -0.02955 0.000312853 -417.455 2200.65 143.371 143.363 -3.8402 -5.2137 328494000.0
795 -0.02945 0.00031286 -417.442 2200.68 143.376 143.365 -4.28835 -10.0619 328494000.0
794 -0.02935 0.000312869 -417.435 2200.69 143.38 143.366 -4.85612 -14.7977 328499000.0
793 -0.02925 0.000312868 -417.433 2200.72 143.383 143.365 -5.27324 -17.1877 328497000.0
792 -0.02915 0.000312855 -417.451 2200.64 143.371 143.363 -4.51307 -9.72935 328498000.0
791 -0.02905 0.000312856 -417.45 2200.64 143.372 143.365 -5.01268 -8.72764 328501000.0
790 -0.02895 0.000312843 -417.468 2200.64 143.365 143.362 -2.30549 -3.02824 328497000.0
789 -0.02885 0.000312839 -417.471 2200.68 143.367 143.36 -0.226753 -4.11319 328497000.0
788 -0.02875 0.000312849 -417.462 2200.73 143.374 143.364 0.341016 -5.54891 328513000.0
787 -0.02865 0.000312842 -417.469 2200.64 143.365 143.361 -1.97626 -1.46651 328504000.0
786 -0.02855 0.000312819 -417.502 2200.71 143.359 143.357 6.06175 9.9301 328497000.0
785 -0.02845 0.000312833 -417.482 2200.64 143.361 143.361 0.531194 4.38514 328506000.0
784 -0.02835 0.000312845 -417.468 2200.59 143.363 143.362 -4.44873 1.10868 328500000.0
783 -0.02825 0.000312842 -417.47 2200.56 143.36 143.362 -4.74297 3.0145 328495000.0
782 -0.02815 0.00031286 -417.448 2200.72 143.378 143.365 -1.56168 -5.77768 328507000.0
781 -0.02805 0.000312838 -417.473 2200.73 143.37 143.36 1.77395 5.64402 328497000.0
780 -0.02795 0.00031283 -417.49 2200.76 143.368 143.36 5.31203 11.6848 328508000.0
779 -0.02785 0.000312838 -417.474 2200.66 143.365 143.359 0.0679745 7.45235 328496000.0
778 -0.02775 0.000312848 -417.462 2200.67 143.37 143.364 -1.2447 1.40147 328514000.0
777 -0.02765 0.000312854 -417.455 2200.66 143.372 143.363 -3.69924 -1.6112 328503000.0
776 -0.02755 0.000312852 -417.456 2200.7 143.374 143.361 -0.0921174 0.399298 328498000.0
775 -0.02745 0.000312852 -417.46 2200.7 143.373 143.364 -0.803782 0.976924 328507000.0
774 -0.02735 0.000312863 -417.44 2200.74 143.382 143.365 -1.16677 -7.08277 328510000.0
773 -0.02725 0.000312855 -417.454 2200.73 143.377 143.364 0.801605 -2.41958 328516000.0
772 -0.02715 0.000312855 -417.451 2200.7 143.375 143.363 -1.60092 -5.31264 328513000.0
771 -0.02705 0.000312856 -417.454 2200.67 143.374 143.364 -1.79485 -6.13806 328512000.0
770 -0.02695 0.000312859 -417.446 2200.65 143.374 143.364 -4.0333 -9.65147 328516000.0
769 -0.02685 0.000312855 -417.453 2200.71 143.376 143.366 -0.310812 -10.6503 328520000.0
768 -0.02675 0.000312844 -417.469 2200.76 143.374 143.362 3.28214 -6.21352 328513000.0
767 -0.02665 0.000312837 -417.477 2200.74 143.37 143.361 4.30241 -0.178352 328509000.0
766 -0.02655 0.000312846 -417.464 2200.74 143.373 143.363 2.37767 -3.727 328508000.0
765 -0.02645 0.000312845 -417.465 2200.85 143.38 143.361 6.77026 -1.15117 328510000.0
764 -0.02635 0.000312847 -417.464 2200.75 143.375 143.362 2.97095 -0.996467 328504000.0
763 -0.02625 0.000312858 -417.448 2200.68 143.375 143.363 -2.96313 -6.65529 328500000.0
762 -0.02615 0.000312892 -417.404 2200.67 143.39 143.37 -8.17735 -20.567 328513000.0
761 -0.02605 0.000312857 -417.45 2200.76 143.38 143.363 0.830223 -5.06158 328506000.0
760 -0.02595 0.000312855 -417.453 2200.77 143.379 143.363 1.7037 -1.73913 328507000.0
759 -0.02585 0.00031286 -417.446 2200.75 143.381 143.364 1.91946 -4.4522 328509000.0
758 -0.02575 0.000312854 -417.452 2200.65 143.372 143.364 -2.82106 -5.65062 328508000.0
757 -0.02565 0.00031286 -417.447 2200.67 143.375 143.366 -3.14741 -7.651 328511000.0
756 -0.02555 0.000312859 -417.445 2200.6 143.37 143.364 -6.68341 -10.6285 328506000.0
755 -0.02545 0.000312839 -417.477 2200.7 143.368 143.362 2.51743 3.97628 328503000.0
754 -0.02535 0.000312861 -417.444 2200.65 143.375 143.365 -4.39531 -7.49176 328510000.0
753 -0.02525 0.000312852 -417.457 2200.71 143.374 143.363 0.367997 -1.2376 328508000.0
752 -0.02515 0.000312853 -417.457 2200.62 143.369 143.364 -1.6294 0.21323 328506000.0
751 -0.02505 0.00031284 -417.471 2200.65 143.365 143.359 0.0839972 3.50973 328494000.0
750 -0.02495 0.00031285 -417.461 2200.65 143.37 143.361 -2.5353 -1.86478 328497000.0
749 -0.02485 0.000312853 -417.454 2200.57 143.366 143.363 -5.296 -0.490948 328495000.0
748 -0.02475 0.000312877 -417.426 2200.6 143.379 143.366 -8.32287 -13.1897 328503000.0
747 -0.02465 0.000312868 -417.433 2200.61 143.376 143.364 -6.47009 -10.0576 328497000.0
746 -0.02455 0.00031286 -417.446 2200.64 143.373 143.363 -3.16738 -7.1396 328489000.0
745 -0.02445 0.000312855 -417.454 2200.68 143.374 143.363 -0.617737 -4.23839 328489000.0
744 -0.02435 0.000312853 -417.454 2200.61 143.369 143.362 -2.16902 -1.87021 328488000.0
743 -0.02425 0.000312848 -417.463 2200.67 143.37 143.361 1.37835 1.09883 328488000.0
742 -0.02415 0.000312856 -417.455 2200.62 143.37 143.363 -3.18627 -4.41848 328496000.0
741 -0.02405 0.000312847 -417.463 2200.66 143.368 143.362 0.27724 -1.96354 328502000.0
740 -0.02395 0.000312842 -417.471 2200.69 143.369 143.359 0.955813 -1.14732 328498000.0
739 -0.02385 0.000312849 -417.46 2200.62 143.367 143.361 -1.63359 -3.25909 328502000.0
738 -0.02375 0.000312859 -417.446 2200.59 143.37 143.364 -5.11246 -4.99572 328502000.0
737 -0.02365 0.000312868 -417.435 2200.56 143.372 143.364 -8.78481 -10.3908 328501000.0
736 -0.02355 0.000312858 -417.447 2200.65 143.373 143.364 -2.91338 -7.31156 328505000.0
735 -0.02345 0.000312866 -417.44 2200.69 143.38 143.365 -1.91802 -8.62977 328503000.0
734 -0.02335 0.000312857 -417.45 2200.66 143.373 143.362 -1.0847 0.482899 328496000.0
733 -0.02325 0.000312838 -417.475 2200.68 143.366 143.359 3.25691 10.0029 328497000.0
732 -0.02315 0.000312847 -417.461 2200.6 143.365 143.361 -2.10623 2.17362 328497000.0
731 -0.02305 0.000312838 -417.477 2200.65 143.364 143.36 1.10067 6.89699 328494000.0
730 -0.02295 0.000312837 -417.478 2200.59 143.36 143.359 0.395372 5.57357 328489000.0
729 -0.02285 0.000312831 -417.482 2200.63 143.359 143.358 3.11081 6.92885 328490000.0
728 -0.02275 0.000312828 -417.49 2200.58 143.355 143.356 1.78044 9.97988 328482000.0
727 -0.02265 0.000312847 -417.462 2200.61 143.365 143.361 -0.22677 3.42511 328495000.0
726 -0.02255 0.000312851 -417.459 2200.74 143.376 143.361 3.56215 0.493825 328495000.0
725 -0.02245 0.000312835 -417.484 2200.72 143.367 143.358 6.38654 7.80512 328492000.0
724 -0.02235 0.000312856 -417.45 2200.59 143.368 143.362 -3.14685 -2.52595 328490000.0
723 -0.02225 0.000312846 -417.465 2200.64 143.367 143.359 1.30359 3.71271 328486000.0
722 -0.02215 0.000312853 -417.458 2200.63 143.369 143.36 0.158964 1.95377 328485000.0
721 -0.02205 0.00031286 -417.449 2200.58 143.37 143.363 -4.08754 -4.08104 328492000.0
720 -0.02195 0.000312841 -417.471 2200.64 143.365 143.357 2.44691 6.13716 328478000.0
719 -0.02185 0.000312825 -417.496 2200.67 143.359 143.357 6.43021 12.3146 328483000.0
718 -0.02175 0.000312834 -417.482 2200.71 143.366 143.358 6.99248 7.99221 328481000.0
717 -0.02165 0.000312839 -417.476 2200.61 143.362 143.357 2.20873 1.65996 328476000.0
716 -0.02155 0.000312841 -417.47 2200.59 143.362 143.358 0.305897 -2.24065 328470000.0
715 -0.02145 0.00031286 -417.444 2200.53 143.367 143.361 -5.51726 -12.4372 328473000.0
714 -0.02135 0.000312856 -417.453 2200.58 143.368 143.361 -1.89406 -12.5731 328469000.0
713 -0.02125 0.000312862 -417.445 2200.55 143.369 143.361 -5.14679 -18.6404 328467000.0
712 -0.02115 0.000312852 -417.456 2200.56 143.365 143.359 -1.25233 -13.2016 328467000.0
711 -0.02105 0.00031286 -417.447 2200.56 143.368 143.362 -4.25395 -16.102 328472000.0
710 -0.02095 0.000312839 -417.475 2200.6 143.361 143.358 2.61371 -2.73662 328468000.0
709 -0.02085 0.000312854 -417.457 2200.55 143.365 143.361 -1.95788 -8.13119 328472000.0
708 -0.02075 0.000312846 -417.467 2200.6 143.365 143.36 1.14115 -4.17652 328469000.0
707 -0.02065 0.000312861 -417.446 2200.58 143.37 143.362 -4.1193 -11.1754 328470000.0
706 -0.02055 0.000312862 -417.445 2200.45 143.362 143.362 -8.77487 -11.9733 328459000.0
705 -0.02045 0.000312868 -417.441 2200.5 143.368 143.363 -6.8025 -12.0267 328469000.0
704 -0.02035 0.000312856 -417.452 2200.57 143.368 143.36 -0.990621 -5.68566 328471000.0
703 -0.02025 0.000312872 -417.433 2200.48 143.369 143.364 -8.44446 -9.24975 328474000.0
702 -0.02015 0.000312866 -417.445 2200.55 143.37 143.363 -4.3128 -6.26423 328478000.0
701 -0.02005 0.000312858 -417.453 2200.58 143.369 143.359 -1.65894 -4.74336 328467000.0
700 -0.01995 0.00031287 -417.436 2200.51 143.37 143.363 -6.04139 -6.58208 328474000.0
699 -0.01985 0.000312872 -417.436 2200.57 143.374 143.364 -5.20291 -6.53623 328478000.0
698 -0.01975 0.000312864 -417.442 2200.68 143.378 143.361 0.868163 -1.56351 328481000.0
697 -0.01965 0.000312874 -417.432 2200.62 143.378 143.365 -1.90235 -5.81451 328486000.0
696 -0.01955 0.000312879 -417.428 2200.54 143.375 143.364 -6.48423 -5.69158 328481000.0
695 -0.01945 0.000312883 -417.422 2200.49 143.374 143.366 -9.66534 -10.1156 328483000.0
694 -0.01935 0.00031288 -417.426 2200.5 143.373 143.363 -7.64448 -6.15616 328481000.0
693 -0.01925 0.000312868 -417.441 2200.55 143.372 143.362 -4.43538 0.066992 328483000.0
692 -0.01915 0.000312874 -417.433 2200.65 143.381 143.363 -1.5845 -3.7221 328484000.0
691 -0.01905 0.000312856 -417.457 2200.73 143.378 143.36 5.80464 3.85276 328489000.0
690 -0.01895 0.000312861 -417.451 2200.59 143.37 143.36 -0.903138 -0.00772307 328479000.0
689 -0.01885 0.000312853 -417.462 2200.6 143.368 143.359 0.979084 2.7845 328476000.0
688 -0.01875 0.000312868 -417.445 2200.62 143.376 143.361 -1.85379 -4.94056 328483000.0
687 -0.01865 0.000312865 -417.445 2200.6 143.373 143.361 -1.25632 -4.04661 328487000.0
686 -0.01855 0.000312848 -417.47 2200.61 143.366 143.357 3.64017 5.00969 328476000.0
685 -0.01845 0.000312854 -417.462 2200.6 143.368 143.359 1.40283 2.78386 328479000.0
684 -0.01835 0.000312858 -417.458 2200.55 143.367 143.36 -1.35538 0.283226 328475000.0
683 -0.01825 0.000312857 -417.456 2200.54 143.365 143.358 -0.866449 2.31963 328465000.0
682 -0.01815 0.000312863 -417.454 2200.61 143.372 143.359 0.522854 -1.35144 328475000.0
681 -0.01805 0.000312845 -417.473 2200.65 143.367 143.358 5.32819 8.96573 328476000.0
680 -0.01795 0.000312868 -417.444 2200.6 143.374 143.36 -1.22065 -4.25504 328480000.0
679 -0.01785 0.000312852 -417.464 2200.6 143.367 143.359 2.09024 7.68564 328480000.0
678 -0.01775 0.000312848 -417.468 2200.59 143.365 143.356 1.83089 10.0786 328469000.0
677 -0.01765 0.000312852 -417.462 2200.66 143.371 143.359 5.33094 7.9811 328483000.0
676 -0.01755 0.000312853 -417.462 2200.59 143.367 143.356 1.7642 5.93869 328470000.0
675 -0.01745 0.000312848 -417.47 2200.58 143.364 143.357 1.74131 5.97728 328476000.0
674 -0.01735 0.000312853 -417.459 2200.52 143.363 143.357 -1.35423 2.83071 328471000.0
673 -0.01725 0.000312852 -417.465 2200.56 143.365 143.359 0.741502 5.82359 328477000.0
672 -0.01715 0.000312839 -417.482 2200.61 143.362 143.356 5.71495 13.5895 328472000.0
671 -0.01705 0.000312853 -417.461 2200.57 143.366 143.357 0.984361 5.29284 328463000.0
670 -0.01695 0.000312845 -417.475 2200.6 143.364 143.355 4.06633 10.5109 328460000.0
669 -0.01685 0.000312855 -417.459 2200.56 143.366 143.358 0.135855 4.19504 328463000.0
668 -0.01675 0.000312856 -417.462 2200.47 143.36 143.358 -2.44052 5.39822 328457000.0
667 -0.01665 0.000312855 -417.46 2200.54 143.365 143.358 -1.24332 4.02105 328460000.0
666 -0.01655 0.000312849 -417.468 2200.62 143.367 143.357 4.42362 8.77593 328464000.0
665 -0.01645 0.000312842 -417.477 2200.5 143.356 143.356 0.29373 12.6531 328455000.0
664 -0.01635 0.000312856 -417.46 2200.56 143.366 143.357 1.03903 5.39575 328455000.0
663 -0.01625 0.000312842 -417.477 2200.55 143.36 143.355 2.42102 12.6297 328455000.0
662 -0.01615 0.00031286 -417.456 2200.57 143.369 143.36 0.59439 4.1632 328466000.0
661 -0.01605 0.000312855 -417.46 2200.57 143.367 143.357 0.746016 4.61356 328457000.0
660 -0.01595 0.000312858 -417.457 2200.59 143.369 143.358 1.4433 0.955289 328453000.0
659 -0.01585 0.000312855 -417.46 2200.61 143.369 143.357 2.84438 4.09383 328458000.0
658 -0.01575 0.000312871 -417.439 2200.6 143.376 143.361 -0.529088 -6.362 328456000.0
657 -0.01565 0.000312855 -417.457 2200.57 143.367 143.358 1.58213 2.67782 328454000.0
656 -0.01555 0.000312846 -417.472 2200.53 143.36 143.356 1.66647 6.98961 328452000.0
655 -0.01545 0.00031286 -417.452 2200.47 143.363 143.358 -3.96693 -1.17763 328450000.0
654 -0.01535 0.000312857 -417.457 2200.5 143.363 143.358 -1.49033 1.9859 328452000.0
653 -0.01525 0.000312842 -417.477 2200.55 143.359 143.354 3.27557 7.99842 328456000.0
652 -0.01515 0.000312856 -417.459 2200.47 143.361 143.357 -3.2897 -0.601766 328456000.0
651 -0.01505 0.000312858 -417.452 2200.5 143.363 143.357 -2.21264 -0.262248 328455000.0
650 -0.01495 0.000312836 -417.484 2200.64 143.362 143.356 5.8115 9.10117 328464000.0
649 -0.01485 0.000312837 -417.481 2200.57 143.358 143.355 4.05483 9.21166 328454000.0
648 -0.01475 0.000312855 -417.458 2200.63 143.37 143.358 2.40964 4.08009 328459000.0
647 -0.01465 0.000312859 -417.453 2200.67 143.375 143.357 4.87501 4.1265 328456000.0
646 -0.01455 0.000312881 -417.42 2200.6 143.38 143.363 -3.54348 -6.40133 328463000.0
645 -0.01445 0.000312877 -417.428 2200.62 143.38 143.361 -1.54812 -5.49855 328460000.0
644 -0.01435 0.000312874 -417.43 2200.63 143.379 143.361 0.0394939 -2.83641 328458000.0
643 -0.01425 0.00031288 -417.421 2200.59 143.379 143.363 -2.67136 -7.10938 328465000.0
642 -0.01415 0.000312851 -417.461 2200.6 143.367 143.358 2.80758 5.05369 328454000.0
641 -0.01405 0.00031285 -417.463 2200.53 143.362 143.358 0.0566243 4.48439 328452000.0
640 -0.01395 0.000312849 -417.463 2200.63 143.368 143.358 4.25884 6.1322 328453000.0
639 -0.01385 0.000312858 -417.452 2200.64 143.372 143.36 3.65355 3.46006 328454000.0
638 -0.01375 0.000312873 -417.436 2200.63 143.379 143.36 0.570842 -7.27192 328455000.0
637 -0.01365 0.000312859 -417.451 2200.6 143.371 143.359 2.53981 0.654607 328449000.0
636 -0.01355 0.000312832 -417.487 2200.55 143.355 143.354 5.01113 10.4303 328436000.0
635 -0.01345 0.000312841 -417.476 2200.53 143.358 143.356 2.65794 4.83036 328441000.0
634 -0.01335 0.000312833 -417.483 2200.62 143.36 143.356 6.42564 6.91293 328441000.0
633 -0.01325 0.000312841 -417.474 2200.57 143.36 143.357 4.59876 5.99602 328439000.0
632 -0.01315 0.000312845 -417.468 2200.59 143.364 143.358 4.87725 5.50404 328439000.0
631 -0.01305 0.000312816 -417.505 2200.61 143.351 143.352 10.3462 15.4597 328426000.0
630 -0.01295 0.000312808 -417.52 2200.63 143.349 143.35 12.1844 18.8049 328422000.0
629 -0.01285 0.000312815 -417.509 2200.68 143.355 143.352 14.2546 13.67 328424000.0
628 -0.01275 0.000312792 -417.538 2200.62 143.341 143.347 15.748 23.5008 328411000.0
627 -0.01265 0.000312798 -417.529 2200.66 143.346 143.349 16.4931 19.9945 328424000.0
626 -0.01255 0.000312803 -417.525 2200.64 143.348 143.349 13.6019 14.2547 328413000.0
625 -0.01245 0.000312798 -417.529 2200.6 143.342 143.347 14.2779 17.9265 328407000.0
624 -0.01235 0.000312823 -417.498 2200.63 143.356 143.353 10.2099 7.0323 328412000.0
623 -0.01225 0.000312807 -417.515 2200.6 143.347 143.35 11.6751 15.4049 328402000.0
622 -0.01215 0.000312797 -417.533 2200.62 143.343 143.35 14.2727 20.0397 328405000.0
621 -0.01205 0.000312811 -417.514 2200.65 143.351 143.351 12.5833 12.7973 328405000.0
620 -0.01195 0.000312787 -417.543 2200.59 143.337 143.345 14.2046 21.7502 328387000.0
619 -0.01185 0.000312796 -417.53 2200.61 143.342 143.348 14.7358 20.4451 328389000.0
618 -0.01175 0.0003128 -417.529 2200.68 143.349 143.349 14.4298 16.8377 328387000.0
617 -0.01165 0.000312812 -417.51 2200.61 143.349 143.35 10.6217 8.53669 328380000.0
616 -0.01155 0.000312794 -417.535 2200.61 143.341 143.347 14.3279 15.489 328369000.0
615 -0.01145 0.000312787 -417.544 2200.62 143.338 143.345 15.8401 19.5152 328362000.0
614 -0.01135 0.000312784 -417.549 2200.63 143.338 143.347 17.1494 20.7731 328366000.0
613 -0.01125 0.00031277 -417.567 2200.75 143.34 143.344 24.0072 25.6706 328366000.0
612 -0.01115 0.000312753 -417.585 2200.81 143.335 143.339 30.8604 33.976 328349000.0
611 -0.01105 0.00031275 -417.594 2200.86 143.337 143.34 31.518 29.996 328357000.0
610 -0.01095 0.000312751 -417.593 2200.82 143.335 143.341 31.9485 30.2314 328351000.0
609 -0.01085 0.000312754 -417.59 2200.86 143.339 143.342 32.1722 27.8299 328344000.0
608 -0.01075 0.000312732 -417.618 2200.83 143.327 143.336 34.955 37.8492 328328000.0
607 -0.01065 0.000312731 -417.617 2200.85 143.328 143.336 37.14 39.1974 328324000.0
606 -0.01055 0.000312737 -417.612 2200.89 143.333 143.338 37.0874 35.6438 328330000.0
605 -0.01045 0.00031273 -417.62 2200.9 143.331 143.336 39.3052 37.8023 328319000.0
604 -0.01035 0.000312714 -417.643 2200.94 143.326 143.333 44.2149 46.0985 328307000.0
603 -0.01025 0.000312711 -417.644 2200.92 143.323 143.332 43.4506 43.9937 328293000.0
602 -0.01015 0.000312707 -417.653 2200.9 143.321 143.332 43.2769 45.7639 328284000.0
601 -0.01005 0.000312706 -417.654 2200.86 143.318 143.332 43.1543 45.8198 328275000.0
600 -0.00995 0.000312696 -417.666 2200.93 143.317 143.33 47.9544 48.5229 328264000.0
599 -0.00985 0.000312686 -417.679 2200.96 143.315 143.329 50.29 50.9894 328255000.0
598 -0.00975 0.000312665 -417.708 2201.0 143.308 143.325 55.7941 57.5694 328238000.0
597 -0.00965 0.000312649 -417.728 2201.01 143.301 143.322 59.9934 64.3511 328226000.0
596 -0.00955 0.000312621 -417.766 2201.1 143.294 143.317 69.1491 76.4943 328207000.0
595 -0.00945 0.000312619 -417.768 2201.14 143.295 143.315 70.584 73.5165 328191000.0
594 -0.00935 0.000312594 -417.801 2201.16 143.286 143.311 76.509 82.4461 328168000.0
593 -0.00925 0.00031259 -417.808 2201.13 143.282 143.311 76.1341 81.1244 328152000.0
592 -0.00915 0.000312582 -417.817 2201.13 143.278 143.309 76.7939 78.4367 328134000.0
591 -0.00905 0.000312555 -417.853 2201.2 143.27 143.305 85.5421 89.9375 328119000.0
590 -0.00895 0.000312531 -417.887 2201.22 143.26 143.301 91.413 97.6441 328102000.0
589 -0.00885 0.000312518 -417.901 2201.21 143.254 143.3 94.3256 97.8514 328082000.0
588 -0.00875 0.000312491 -417.94 2201.35 143.25 143.293 104.899 104.749 328059000.0
587 -0.00865 0.000312468 -417.966 2201.31 143.238 143.29 104.996 109.035 328032000.0
586 -0.00855 0.000312444 -418.001 2201.39 143.232 143.287 113.693 116.719 328013000.0
585 -0.00845 0.000312408 -418.046 2201.42 143.217 143.28 122.359 129.647 327980000.0
584 -0.00835 0.000312363 -418.109 2201.52 143.203 143.272 132.73 141.123 327950000.0
583 -0.00825 0.000312333 -418.146 2201.64 143.197 143.267 145.974 148.686 327918000.0
582 -0.00815 0.000312292 -418.201 2201.67 143.18 143.26 154.113 160.466 327886000.0
581 -0.00805 0.000312262 -418.238 2201.7 143.168 143.257 160.725 168.532 327858000.0
580 -0.00795 0.000312218 -418.299 2201.8 143.155 143.248 172.388 176.478 327815000.0
579 -0.00785 0.000312184 -418.341 2201.84 143.142 143.243 180.448 186.271 327775000.0
578 -0.00775 0.000312141 -418.396 2201.89 143.125 143.234 190.17 193.452 327722000.0
577 -0.00765 0.000312107 -418.441 2202.02 143.118 143.23 202.438 200.278 327693000.0
576 -0.00755 0.00031204 -418.532 2202.22 143.1 143.218 222.384 221.192 327647000.0
575 -0.00745 0.000311986 -418.601 2202.25 143.078 143.208 233.499 231.313 327590000.0
574 -0.00735 0.000311906 -418.709 2202.33 143.046 143.194 251.952 250.52 327529000.0
573 -0.00725 0.000311848 -418.786 2202.38 143.022 143.185 265.598 258.981 327481000.0
572 -0.00715 0.000311775 -418.88 2202.36 142.988 143.17 276.554 267.942 327396000.0
571 -0.00705 0.000311689 -418.996 2202.56 142.961 143.157 302.138 289.264 327334000.0
570 -0.00695 0.000311606 -419.106 2202.59 142.926 143.143 319.646 307.184 327260000.0
569 -0.00685 0.000311489 -419.259 2202.77 142.883 143.121 347.701 336.574 327177000.0
568 -0.00675 0.000311393 -419.385 2202.91 142.849 143.105 371.218 355.68 327100000.0
567 -0.00665 0.000311292 -419.52 2202.99 142.807 143.088 393.495 375.364 327010000.0
566 -0.00655 0.000311172 -419.679 2203.16 142.763 143.067 423.268 396.419 326906000.0
565 -0.00645 0.000311058 -419.831 2203.24 142.716 143.048 447.664 416.419 326811000.0
564 -0.00635 0.000310925 -420.004 2203.37 142.663 143.025 478.844 441.579 326698000.0
563 -0.00625 0.000310777 -420.205 2203.48 142.603 142.999 510.864 470.931 326586000.0
562 -0.00615 0.000310632 -420.397 2203.58 142.542 142.975 540.943 495.248 326458000.0
561 -0.00605 0.000310467 -420.617 2203.67 142.473 142.945 578.496 524.366 326327000.0
560 -0.00595 0.000310303 -420.832 2203.8 142.406 142.917 611.917 548.307 326185000.0
559 -0.00585 0.000310108 -421.096 2203.98 142.328 142.882 656.676 582.573 326028000.0
558 -0.00575 0.000309926 -421.337 2204.17 142.257 142.853 699.105 609.56 325881000.0
557 -0.00565 0.000309703 -421.636 2204.31 142.164 142.814 746.463 648.159 325705000.0
556 -0.00555 0.000309455 -421.968 2204.46 142.06 142.768 800.043 692.536 325512000.0
555 -0.00545 0.000309202 -422.306 2204.67 141.957 142.724 855.215 729.303 325311000.0
554 -0.00535 0.000308928 -422.675 2204.77 141.837 142.677 912.998 773.055 325095000.0
553 -0.00525 0.00030861 -423.104 2204.92 141.701 142.623 978.681 828.662 324860000.0
552 -0.00515 0.000308276 -423.556 2205.15 141.562 142.562 1051.58 883.668 324606000.0
551 -0.00505 0.000307936 -424.011 2205.37 141.42 142.503 1124.21 932.882 324340000.0
550 -0.00495 0.000307555 -424.535 2205.65 141.263 142.435 1209.23 993.967 324060000.0
549 -0.00485 0.000307139 -425.097 2205.86 141.085 142.361 1298.93 1060.71 323751000.0
548 -0.00475 0.000306702 -425.694 2206.07 140.898 142.284 1390.79 1124.89 323430000.0
547 -0.00465 0.000306209 -426.367 2206.34 140.689 142.195 1495.96 1202.13 323066000.0
546 -0.00455 0.000305699 -427.069 2206.47 140.463 142.106 1600.44 1277.91 322699000.0
545 -0.00445 0.000305149 -427.821 2206.65 140.222 142.004 1713.93 1354.92 322283000.0
544 -0.00435 0.00030455 -428.653 2207.03 139.97 141.898 1844.38 1444.75 321864000.0
543 -0.00425 0.000303883 -429.577 2207.18 139.674 141.777 1980.64 1549.97 321390000.0
542 -0.00415 0.000303201 -430.527 2207.47 139.378 141.651 2126.02 1646.74 320887000.0
541 -0.00405 0.000302427 -431.612 2207.79 139.043 141.51 2292.85 1773.09 320349000.0
540 -0.00395 0.000301631 -432.734 2208.0 138.69 141.366 2457.23 1886.39 319784000.0
539 -0.00385 0.000300784 -433.934 2208.01 138.301 141.208 2626.01 2003.18 319158000.0
538 -0.00375 0.000299848 -435.264 2208.17 137.881 141.033 2818.98 2141.63 318490000.0
537 -0.00365 0.000298842 -436.708 2208.3 137.426 140.845 3025.53 2292.17 317779000.0
536 -0.00355 0.000297788 -438.226 2208.53 136.956 140.647 3246.27 2441.47 317030000.0
535 -0.00345 0.000296629 -439.914 2208.69 136.433 140.428 3489.52 2619.1 316215000.0
534 -0.00335 0.000295392 -441.727 2208.83 135.873 140.189 3746.19 2803.56 315340000.0
533 -0.00325 0.000294061 -443.697 2209.03 135.272 139.932 4028.79 3009.91 314413000.0
532 -0.00315 0.000292664 -445.779 2209.07 134.632 139.663 4318.78 3218.36 313425000.0
531 -0.00305 0.000291156 -448.05 2209.01 133.935 139.365 4630.33 3448.74 312350000.0
530 -0.00295 0.000289546 -450.505 2208.98 133.192 139.046 4967.3 3701.78 311214000.0
529 -0.00285 0.000287799 -453.196 2208.97 132.388 138.693 5338.17 3988.72 309993000.0
528 -0.00275 0.000285963 -456.057 2208.95 131.542 138.323 5732.89 4292.44 308713000.0
527 -0.00265 0.000283993 -459.17 2208.88 130.632 137.919 6158.11 4628.54 307336000.0
526 -0.00255 0.00028191 -462.507 2208.68 129.662 137.484 6605.5 4987.24 305869000.0
525 -0.00245 0.000279698 -466.112 2208.42 128.629 137.017 7086.75 5379.55 304310000.0
524 -0.00235 0.00027735 -469.995 2208.02 127.527 136.513 7598.85 5807.87 302658000.0
523 -0.00225 0.000274861 -474.179 2207.55 126.355 135.969 8145.74 6275.35 300902000.0
522 -0.00215 0.000272258 -478.643 2206.96 125.126 135.392 8725.56 6771.78 299053000.0
521 -0.00205 0.000269505 -483.454 2206.28 123.822 134.768 9343.88 7316.71 297097000.0
520 -0.00195 0.000266628 -488.582 2205.34 122.448 134.104 9993.07 7899.81 295033000.0
519 -0.00185 0.000263598 -494.112 2204.23 120.995 133.391 10684.1 8541.83 292865000.0
518 -0.00175 0.000260442 -499.996 2202.99 119.48 132.628 11414.3 9230.7 290586000.0
517 -0.00165 0.000257159 -506.278 2201.59 117.898 131.819 12185.6 9967.08 288205000.0
516 -0.00155 0.000253721 -513.024 2199.89 116.232 130.95 12999.9 10779.8 285712000.0
515 -0.00145 0.000250178 -520.166 2197.76 114.498 130.03 13843.1 11640.4 283105000.0
514 -0.00135 0.000246485 -527.826 2195.54 112.694 129.044 14744.3 12582.7 280400000.0
513 -0.00125 0.000242692 -535.932 2192.83 110.823 128.002 15673.2 13578.2 277591000.0
512 -0.00115 0.000238782 -544.558 2189.68 108.881 126.893 16644.2 14649.9 274675000.0
511 -0.00105 0.000234776 -553.688 2186.01 106.875 125.723 17647.8 15794.1 271683000.0
510 -0.00095 0.000230695 -563.308 2181.96 104.823 124.491 18687.0 16999.1 268609000.0
509 -0.00085 0.000226531 -573.475 2177.31 102.711 123.188 19758.1 18276.7 265449000.0
508 -0.00075 0.000222307 -584.177 2171.92 100.546 121.821 20852.8 19622.6 262219000.0
507 -0.00065 0.000218006 -595.49 2165.97 98.331 120.376 21983.7 21054.0 258936000.0
506 -0.00055 0.000213664 -607.361 2159.27 96.0746 118.862 23135.2 22550.4 255602000.0
505 -0.00045 0.0002093 -619.791 2151.75 93.7845 117.278 24302.2 24104.0 252233000.0
504 -0.00035 0.000204901 -632.839 2143.16 91.447 115.618 25479.7 25730.1 248833000.0
503 -0.00025 0.000200493 -646.475 2133.72 89.0854 113.883 26669.1 27414.8 245420000.0
502 -0.00015 0.000196097 -660.681 2123.3 86.7064 112.081 27859.7 29148.2 242015000.0
501 -5e-05 0.000191672 -675.623 2111.57 84.2817 110.184 29055.3 30963.9 238611000.0
500 5e-05 0.000187252 -691.547 2098.25 81.819 108.127 30255.6 32862.1 235140000.0
499 0.00015 0.000183048 -707.698 2083.13 79.4057 106.005 31363.0 34647.3 231591000.0
498 0.00025 0.000178983 -724.034 2066.62 77.0269 103.858 32399.7 36361.8 228061000.0
497 0.00035 0.000175021 -740.684 2048.87 74.6748 101.67 33381.3 38026.5 224561000.0
496 0.00045 0.000171184 -757.528 2029.72 72.3551 99.4562 34290.9 39621.6 221090000.0
495 0.00055 0.00016746 -774.631 2009.43 70.0733 97.2104 35139.7 41147.1 217662000.0
494 0.00065 0.000163848 -791.953 1987.71 67.8208 94.9377 35914.1 42600.5 214266000.0
493 0.00075 0.000160327 -809.574 1964.6 65.5918 92.6235 36620.5 43986.5 210900000.0
492 0.00085 0.000156948 -827.232 1940.37 63.4176 90.307 37243.7 45258.3 207574000.0
491 0.00095 0.00015367 -845.098 1914.71 61.272 87.9625 37784.2 46442.0 204264000.0
490 0.00105 0.000150524 -862.978 1887.92 59.1778 85.6186 38241.3 47512.4 200989000.0
489 0.00115 0.000147506 -880.847 1859.98 57.1332 83.2741 38606.1 48454.2 197711000.0
488 0.00125 0.000144602 -898.743 1830.84 55.1308 80.9282 38883.2 49284.4 194448000.0
487 0.00135 0.000141825 -916.527 1800.86 53.1868 78.5958 39076.1 49984.1 191197000.0
486 0.00145 0.000139158 -934.295 1769.92 51.2898 76.2671 39185.4 50562.4 187941000.0
485 0.00155 0.000136612 -951.889 1738.04 49.4443 73.9598 39203.3 51009.0 184673000.0
484 0.00165 0.000134173 -969.377 1705.27 47.6462 71.668 39136.3 51330.4 181381000.0
483 0.00175 0.000131856 -986.586 1672.02 45.9103 69.4129 38990.7 51521.9 178081000.0
482 0.00185 0.000129645 -1003.58 1638.12 44.2254 67.1852 38764.4 51588.3 174747000.0
481 0.00195 0.000127536 -1020.33 1603.86 42.596 64.9901 38470.9 51538.0 171404000.0
480 0.00205 0.000125543 -1036.7 1569.3 41.0268 62.8432 38103.2 51361.5 168011000.0
479 0.00215 0.000123633 -1052.85 1534.28 39.5013 60.7261 37668.6 51083.2 164591000.0
478 0.00225 0.000121824 -1068.62 1499.27 38.0351 58.6588 37179.0 50700.9 161154000.0
477 0.00235 0.000120101 -1084.11 1463.9 36.6123 56.6286 36624.4 50217.7 157657000.0
476 0.00245 0.00011847 -1099.16 1428.75 35.248 54.6561 36025.0 49646.5 154153000.0
475 0.00255 0.000116916 -1113.9 1393.63 33.9307 52.724 35379.8 48990.1 150616000.0
474 0.00265 0.000115449 -1128.18 1358.83 32.6682 50.8522 34694.5 48257.0 147057000.0
473 0.00275 0.000114058 -1142.07 1324.34 31.4552 49.0322 33978.8 47459.3 143498000.0
472 0.00285 0.000112734 -1155.59 1290.09 30.2862 47.26 33227.7 46595.9 139908000.0
471 0.00295 0.000111479 -1168.71 1256.27 29.1639 45.5401 32452.7 45679.6 136316000.0
470 0.00305 0.000110296 -1181.34 1223.01 28.0905 43.8838 31656.7 44718.8 132723000.0
469 0.00315 0.000109174 -1193.59 1190.33 27.0618 42.2779 30847.3 43716.8 129138000.0
468 0.00325 0.000108104 -1205.5 1158.0 26.0686 40.7161 30019.0 42679.5 125551000.0
467 0.00335 0.000107095 -1216.95 1126.46 25.122 39.2149 29186.2 41617.2 121991000.0
466 0.00345 0.000106146 -1227.92 1095.74 24.2203 37.7766 28351.2 40536.8 118460000.0
465 0.00355 0.000105239 -1238.59 1065.53 23.3513 36.3782 27510.4 39436.9 114950000.0
464 0.00365 0.000104386 -1248.8 1036.21 22.5247 35.0394 26675.5 38330.8 111486000.0
463 0.00375 0.000103574 -1258.65 1007.47 21.7296 33.7467 25837.6 37216.2 108041000.0
462 0.00385 0.000102809 -1268.11 979.571 20.9718 32.5071 25009.8 36104.6 104657000.0
461 0.00395 0.000102085 -1277.16 952.563 20.2501 31.3195 24192.4 34995.2 101321000.0
460 0.00405 0.000101392 -1285.96 926.025 19.5523 30.166 23377.0 33886.8 98022000.0
459 0.00415 0.000100742 -1294.33 900.549 18.8925 29.0683 22581.7 32791.6 94795800.0
458 0.00425 0.000100126 -1302.33 875.917 18.2634 28.0182 21801.4 31712.4 91637800.0
457 0.00435 9.9544e-05 -1310.03 852.058 17.6626 27.0094 21037.0 30647.5 88547700.0
456 0.00445 9.89892e-05 -1317.43 828.874 17.0862 26.0389 20283.9 29596.4 85510300.0
455 0.00455 9.84603e-05 -1324.56 806.312 16.5323 25.1029 19543.0 28560.0 82531600.0
454 0.00465 9.79638e-05 -1331.32 784.776 16.0096 24.216 18827.0 27550.4 79641100.0
453 0.00475 9.7494e-05 -1337.78 764.017 15.5114 23.3684 18131.3 26565.3 76832100.0