TITLE = "DSMC"
VARIABLES = "ID" "X" "rho" "v1" "Ttrans" "p" "p1" "q1" "mv1v1v1" "mvvv1v1"
ZONE T="Ma=4.8_inv", I=800, J=1, K=1, F=POINT
800 -0.02995 0.000312654 -417.474 2202.5 143.4 143.392 1.28755 0.503595 328811000.0
799 -0.02985 0.00031267 -417.452 2202.44 143.404 143.396 -2.32723 -5.67326 328821000.0
798 -0.02975 0.000312665 -417.454 2202.45 143.402 143.393 -2.0492 -3.89786 328809000.0
797 -0.02965 0.000312664 -417.463 2202.41 143.399 143.394 -4.9419 -4.37789 328815000.0
796 -0.02955 0.000312665 -417.457 2202.36 143.396 143.394 -6.32681 -6.90539 328815000.0
795 -0.02945 0.000312661 -417.463 2202.37 143.395 143.394 -5.31484 -5.1073 328814000.0
794 -0.02935 0.000312636 -417.495 2202.36 143.383 143.389 -1.62792 7.51249 328809000.0
793 -0.02925 0.000312661 -417.458 2202.38 143.396 143.393 -3.77144 -0.421251 328813000.0
792 -0.02915 0.000312666 -417.456 2202.44 143.402 143.396 -3.42464 -1.26268 328823000.0
791 -0.02905 0.000312664 -417.456 2202.52 143.406 143.395 -0.335404 0.95186 328824000.0
790 -0.02895 0.000312675 -417.44 2202.47 143.408 143.396 -3.85696 -3.88427 328825000.0
789 -0.02885 0.000312682 -417.432 2202.5 143.413 143.398 -4.54692 -6.61686 328830000.0
788 -0.02875 0.000312674 -417.443 2202.5 143.409 143.395 -2.95864 -2.7645 328821000.0
787 -0.02865 0.000312675 -417.439 2202.46 143.407 143.396 -4.52932 -3.06139 328823000.0
786 -0.02855 0.000312657 -417.467 2202.47 143.4 143.392 -0.27145 6.99718 328818000.0
785 -0.02845 0.000312654 -417.469 2202.41 143.394 143.393 -2.3218 8.50332 328821000.0
784 -0.02835 0.000312656 -417.466 2202.34 143.391 143.391 -5.05502 5.29593 328818000.0
783 -0.02825 0.00031268 -417.435 2202.37 143.404 143.395 -8.47331 -5.57159 328825000.0
782 -0.02815 0.00031268 -417.433 2202.37 143.404 143.397 -9.39161 -5.48118 328826000.0
781 -0.02805 0.000312667 -417.451 2202.43 143.402 143.394 -3.36925 1.14954 328822000.0
780 -0.02795 0.000312666 -417.451 2202.45 143.402 143.393 -3.21265 0.452512 328824000.0
779 -0.02785 0.000312672 -417.446 2202.41 143.402 143.397 -5.32685 -2.66202 328832000.0
778 -0.02775 0.000312685 -417.429 2202.4 143.408 143.398 -9.1871 -7.16532 328831000.0
777 -0.02765 0.000312687 -417.424 2202.36 143.406 143.398 -11.1103 -7.14451 328832000.0
776 -0.02755 0.000312699 -417.41 2202.41 143.415 143.4 -11.6653 -12.2344 328839000.0
775 -0.02745 0.000312706 -417.402 2202.41 143.418 143.4 -11.7134 -13.6953 328834000.0
774 -0.02735 0.000312686 -417.425 2202.42 143.41 143.398 -6.8247 -3.3738 328836000.0
773 -0.02725 0.000312678 -417.44 2202.43 143.406 143.397 -5.46054 -1.90172 328834000.0
772 -0.02715 0.000312672 -417.443 2202.4 143.402 143.396 -6.53399 -1.0164 328832000.0
771 -0.02705 0.000312656 -417.469 2202.52 143.402 143.392 1.75414 8.00996 328831000.0
770 -0.02695 0.000312663 -417.456 2202.56 143.408 143.393 2.34458 1.90017 328834000.0
769 -0.02685 0.000312659 -417.462 2202.5 143.402 143.391 0.236159 3.47463 328828000.0
768 -0.02675 0.000312671 -417.447 2202.51 143.409 143.396 -1.29807 -2.35664 328837000.0
767 -0.02665 0.000312666 -417.455 2202.55 143.409 143.394 1.26973 -3.23527 328832000.0
766 -0.02655 0.000312665 -417.457 2202.49 143.404 143.393 -1.06234 -0.866534 328829000.0
765 -0.02645 0.00031268 -417.437 2202.46 143.409 143.398 -5.61393 -7.94108 328840000.0
764 -0.02635 0.00031268 -417.434 2202.43 143.408 143.395 -6.83842 -12.3622 328825000.0
763 -0.02625 0.000312662 -417.456 2202.52 143.405 143.394 1.3502 -3.36815 328833000.0
762 -0.02615 0.000312655 -417.47 2202.51 143.401 143.391 1.50793 0.145958 328823000.0
761 -0.02605 0.000312679 -417.436 2202.4 143.405 143.397 -8.45785 -12.594 328825000.0
760 -0.02595 0.000312671 -417.446 2202.45 143.405 143.397 -5.07433 -10.1892 328833000.0
759 -0.02585 0.000312679 -417.435 2202.43 143.407 143.396 -6.64275 -13.3783 328825000.0
758 -0.02575 0.000312663 -417.458 2202.49 143.404 143.394 -0.807079 -7.10455 328829000.0
757 -0.02565 0.000312654 -417.471 2202.5 143.401 143.394 1.11 -3.08038 328830000.0
756 -0.02555 0.000312653 -417.47 2202.38 143.392 143.392 -3.61707 -3.65308 328816000.0
755 -0.02545 0.000312656 -417.469 2202.44 143.397 143.393 -1.20367 -3.14114 328825000.0
754 -0.02535 0.000312671 -417.451 2202.45 143.405 143.396 -3.55922 -10.0023 328837000.0
753 -0.02525 0.000312656 -417.469 2202.48 143.4 143.392 1.73946 -0.088845 328829000.0
752 -0.02515 0.000312672 -417.45 2202.46 143.406 143.396 -4.31724 -8.62106 328831000.0
751 -0.02505 0.000312652 -417.473 2202.48 143.398 143.392 2.81082 3.55723 328829000.0
750 -0.02495 0.000312649 -417.481 2202.51 143.399 143.393 4.38881 5.47009 328826000.0
749 -0.02485 0.000312664 -417.457 2202.5 143.405 143.392 0.188795 -5.20988 328824000.0
748 -0.02475 0.000312682 -417.437 2202.51 143.413 143.396 -2.34754 -10.1063 328833000.0
747 -0.02465 0.000312653 -417.476 2202.53 143.402 143.392 4.27096 3.6024 328828000.0
746 -0.02455 0.000312668 -417.454 2202.49 143.406 143.394 -0.471551 -6.70599 328825000.0
745 -0.02445 0.000312653 -417.474 2202.44 143.396 143.39 0.285804 -1.04916 328816000.0
744 -0.02435 0.000312653 -417.475 2202.47 143.398 143.392 2.58027 1.51433 328823000.0
743 -0.02425 0.00031264 -417.496 2202.47 143.392 143.387 5.96962 7.28396 328814000.0
742 -0.02415 0.000312652 -417.475 2202.51 143.4 143.391 3.36566 0.29948 328828000.0
741 -0.02405 0.000312647 -417.485 2202.47 143.395 143.39 3.03843 3.71963 328827000.0
740 -0.02395 0.00031266 -417.468 2202.41 143.397 143.392 -2.38336 -4.94566 328823000.0
739 -0.02385 0.000312644 -417.487 2202.43 143.391 143.389 3.01655 1.51353 328819000.0
738 -0.02375 0.000312634 -417.502 2202.41 143.385 143.387 3.7263 7.37973 328820000.0
737 -0.02365 0.000312635 -417.501 2202.47 143.389 143.387 5.80443 6.35114 328822000.0
736 -0.02355 0.000312637 -417.501 2202.58 143.398 143.389 8.09588 3.66779 328830000.0
735 -0.02345 0.00031264 -417.495 2202.52 143.395 143.388 7.21699 0.173231 328826000.0
734 -0.02335 0.000312658 -417.47 2202.37 143.394 143.391 -3.70833 -6.07286 328828000.0
733 -0.02325 0.000312659 -417.47 2202.46 143.4 143.391 -0.127736 -7.83807 328828000.0
732 -0.02315 0.000312641 -417.496 2202.51 143.395 143.387 5.50055 1.73013 328822000.0
731 -0.02305 0.000312647 -417.483 2202.49 143.396 143.39 3.80595 -2.29937 328826000.0
730 -0.02295 0.000312662 -417.466 2202.41 143.398 143.392 -2.52379 -8.95139 328821000.0
729 -0.02285 0.000312662 -417.468 2202.36 143.395 143.392 -3.36927 -7.05729 328823000.0
728 -0.02275 0.000312666 -417.458 2202.44 143.402 143.394 -2.59698 -10.673 328823000.0
727 -0.02265 0.000312664 -417.464 2202.41 143.399 143.392 -2.60285 -5.89741 328815000.0
726 -0.02255 0.00031268 -417.442 2202.4 143.406 143.395 -5.9812 -11.5598 328818000.0
725 -0.02245 0.000312671 -417.454 2202.47 143.406 143.391 -1.38951 -7.32194 328815000.0
724 -0.02235 0.000312678 -417.444 2202.44 143.407 143.395 -4.51866 -9.56319 328827000.0
723 -0.02225 0.000312658 -417.473 2202.5 143.402 143.391 0.591997 -0.15749 328823000.0
722 -0.02215 0.000312654 -417.481 2202.45 143.397 143.391 -0.309065 0.701038 328819000.0
721 -0.02205 0.000312657 -417.473 2202.41 143.396 143.391 -0.425706 -0.75484 328819000.0
720 -0.02195 0.000312664 -417.466 2202.39 143.397 143.393 -4.25008 -7.53606 328822000.0
719 -0.02185 0.000312664 -417.461 2202.48 143.404 143.393 -1.49764 -5.26122 328821000.0
718 -0.02175 0.000312669 -417.458 2202.49 143.407 143.395 -1.80692 -8.49786 328829000.0
717 -0.02165 0.000312663 -417.464 2202.45 143.401 143.392 -2.36146 -5.42299 328816000.0
716 -0.02155 0.000312676 -417.449 2202.3 143.398 143.395 -9.71391 -10.7334 328812000.0
715 -0.02145 0.000312687 -417.43 2202.33 143.404 143.397 -11.8858 -16.646 328819000.0
714 -0.02135 0.000312706 -417.406 2202.29 143.411 143.401 -17.3732 -25.1353 328823000.0
713 -0.02125 0.000312699 -417.42 2202.38 143.413 143.4 -9.81377 -20.0334 328828000.0
712 -0.02115 0.000312677 -417.444 2202.43 143.406 143.395 -5.32268 -12.1454 328822000.0
711 -0.02105 0.000312672 -417.452 2202.47 143.406 143.394 -2.06194 -8.56033 328822000.0
710 -0.02095 0.000312661 -417.467 2202.52 143.405 143.393 0.995579 -5.14609 328828000.0
709 -0.02085 0.000312656 -417.476 2202.55 143.404 143.393 3.85254 -1.76746 328830000.0
708 -0.02075 0.000312657 -417.468 2202.41 143.396 143.391 -1.69556 -3.66752 328825000.0
707 -0.02065 0.000312654 -417.478 2202.5 143.4 143.392 2.02078 -0.0265708 328832000.0
706 -0.02055 0.00031264 -417.495 2202.4 143.387 143.389 0.26091 9.38395 328812000.0
705 -0.02045 0.00031263 -417.508 2202.43 143.385 143.388 3.58462 14.2309 328816000.0
704 -0.02035 0.000312643 -417.495 2202.38 143.387 143.389 0.65099 8.55241 328814000.0
703 -0.02025 0.000312639 -417.492 2202.41 143.387 143.388 1.194 7.39162 328814000.0
702 -0.02015 0.000312641 -417.497 2202.54 143.397 143.389 6.0329 7.01074 328819000.0
701 -0.02005 0.000312645 -417.493 2202.55 143.399 143.39 5.16575 6.06296 328821000.0
700 -0.01995 0.000312646 -417.493 2202.51 143.397 143.39 4.11743 8.10485 328812000.0
699 -0.01985 0.000312633 -417.508 2202.48 143.39 143.388 4.89277 11.9306 328816000.0
698 -0.01975 0.000312637 -417.507 2202.55 143.395 143.387 7.89301 11.3116 328813000.0
697 -0.01965 0.000312664 -417.467 2202.53 143.407 143.394 1.97954 -1.02971 328829000.0
696 -0.01955 0.000312663 -417.469 2202.34 143.394 143.391 -5.31459 -1.05331 328816000.0
695 -0.01945 0.000312644 -417.497 2202.34 143.385 143.39 -1.44304 6.79776 328815000.0
694 -0.01935 0.000312668 -417.462 2202.29 143.393 143.393 -9.01532 -6.35571 328819000.0
693 -0.01925 0.000312666 -417.469 2202.32 143.394 143.394 -7.65942 -6.17906 328819000.0
692 -0.01915 0.000312655 -417.479 2202.38 143.393 143.389 -2.35561 -2.54688 328808000.0
691 -0.01905 0.000312662 -417.475 2202.31 143.391 143.392 -6.43811 -4.09761 328813000.0
690 -0.01895 0.000312661 -417.471 2202.37 143.395 143.391 -4.02253 -5.19799 328815000.0
689 -0.01885 0.000312665 -417.467 2202.4 143.399 143.392 -3.98044 -6.64577 328819000.0
688 -0.01875 0.000312659 -417.476 2202.43 143.398 143.392 -1.70255 -4.31702 328815000.0
687 -0.01865 0.000312663 -417.472 2202.55 143.408 143.394 1.23246 -7.96036 328827000.0
686 -0.01855 0.00031265 -417.483 2202.57 143.403 143.39 6.63573 0.00892422 328817000.0
685 -0.01845 0.000312642 -417.497 2202.52 143.396 143.389 5.36737 1.90538 328822000.0
684 -0.01835 0.000312654 -417.484 2202.46 143.398 143.392 1.10958 -4.41408 328826000.0
683 -0.01825 0.000312639 -417.502 2202.48 143.392 143.388 4.13445 3.15623 328822000.0
682 -0.01815 0.000312641 -417.497 2202.46 143.391 143.389 2.95164 4.0346 328828000.0
681 -0.01805 0.000312649 -417.489 2202.56 143.402 143.389 6.47371 0.873917 328830000.0
680 -0.01795 0.000312654 -417.484 2202.54 143.402 143.388 4.56602 0.875934 328825000.0
679 -0.01785 0.00031266 -417.474 2202.41 143.397 143.392 -2.33568 -1.06112 328821000.0
678 -0.01775 0.000312659 -417.477 2202.46 143.4 143.392 -0.361235 1.40837 328821000.0
677 -0.01765 0.000312664 -417.471 2202.4 143.398 143.393 -1.76933 1.63519 328821000.0
676 -0.01755 0.000312674 -417.458 2202.46 143.407 143.391 -2.75048 -2.23656 328814000.0
675 -0.01745 0.000312671 -417.464 2202.52 143.409 143.393 0.204247 1.89344 328821000.0
674 -0.01735 0.000312666 -417.469 2202.45 143.403 143.391 -1.02263 1.12818 328819000.0
673 -0.01725 0.000312659 -417.478 2202.41 143.397 143.391 -1.99897 2.47998 328819000.0
672 -0.01715 0.000312666 -417.466 2202.52 143.407 143.391 1.40005 -3.16773 328824000.0
671 -0.01705 0.000312655 -417.482 2202.56 143.405 143.39 5.72823 1.97922 328824000.0
670 -0.01695 0.000312662 -417.474 2202.6 143.41 143.392 5.26846 -1.71189 328828000.0
669 -0.01685 0.000312667 -417.465 2202.54 143.409 143.391 1.458 -4.72711 328823000.0
668 -0.01675 0.000312672 -417.458 2202.55 143.412 143.393 1.53876 -8.26237 328829000.0
667 -0.01665 0.000312668 -417.461 2202.43 143.402 143.391 -1.22836 -4.54515 328819000.0
666 -0.01655 0.00031266 -417.477 2202.48 143.402 143.392 1.80993 -1.57325 328819000.0
665 -0.01645 0.000312652 -417.488 2202.49 143.398 143.39 1.32448 -0.713583 328819000.0
664 -0.01635 0.000312644 -417.497 2202.47 143.394 143.39 2.89619 5.73812 328815000.0
663 -0.01625 0.000312654 -417.48 2202.5 143.4 143.39 3.53096 1.19328 328815000.0
662 -0.01615 0.000312637 -417.506 2202.49 143.392 143.388 5.3551 5.70757 328818000.0
661 -0.01605 0.000312622 -417.529 2202.49 143.385 143.384 9.7187 12.1844 328810000.0
660 -0.01595 0.000312631 -417.515 2202.45 143.386 143.387 5.46293 9.36686 328810000.0
659 -0.01585 0.000312628 -417.52 2202.4 143.382 143.385 4.24843 10.404 328802000.0
658 -0.01575 0.000312641 -417.501 2202.46 143.391 143.39 4.96928 6.10661 328814000.0
657 -0.01565 0.000312653 -417.484 2202.52 143.401 143.392 4.58336 3.0686 328823000.0
656 -0.01555 0.000312654 -417.483 2202.48 143.399 143.389 3.55495 1.81714 328810000.0
655 -0.01545 0.000312645 -417.501 2202.52 143.397 143.389 4.52102 4.97161 328815000.0
654 -0.01535 0.000312662 -417.471 2202.33 143.393 143.392 -5.08982 -2.37105 328809000.0
653 -0.01525 0.000312657 -417.478 2202.33 143.39 143.391 -5.07074 -2.40343 328804000.0
652 -0.01515 0.000312644 -417.497 2202.5 143.395 143.389 4.33814 7.55063 328812000.0
651 -0.01505 0.00031264 -417.498 2202.5 143.394 143.388 5.77531 9.18205 328812000.0
650 -0.01495 0.000312653 -417.485 2202.58 143.405 143.391 7.15346 1.88668 328819000.0
649 -0.01485 0.000312666 -417.466 2202.4 143.399 143.392 -1.9112 -6.9308 328815000.0
648 -0.01475 0.000312639 -417.499 2202.41 143.387 143.389 2.47634 5.81783 328813000.0
647 -0.01465 0.00031265 -417.484 2202.45 143.395 143.391 1.96732 2.05672 328816000.0
646 -0.01455 0.000312632 -417.508 2202.5 143.39 143.385 8.62416 8.44266 328805000.0
645 -0.01445 0.000312636 -417.502 2202.51 143.393 143.39 5.77506 1.57014 328814000.0
644 -0.01435 0.000312624 -417.516 2202.6 143.393 143.386 13.2885 14.7099 328808000.0
643 -0.01425 0.000312626 -417.513 2202.63 143.396 143.386 13.4321 14.1371 328806000.0
642 -0.01415 0.000312624 -417.519 2202.5 143.386 143.386 8.8382 16.6069 328798000.0
641 -0.01405 0.000312629 -417.51 2202.55 143.392 143.387 9.60558 12.4343 328802000.0
640 -0.01395 0.000312628 -417.512 2202.55 143.392 143.387 9.14399 10.4145 328803000.0
639 -0.01385 0.000312618 -417.526 2202.66 143.394 143.385 16.8725 16.9243 328806000.0
638 -0.01375 0.000312638 -417.496 2202.56 143.397 143.389 7.94081 8.96956 328809000.0
637 -0.01365 0.00031264 -417.498 2202.54 143.396 143.389 5.6634 9.60359 328806000.0
636 -0.01355 0.000312653 -417.482 2202.54 143.403 143.392 5.01972 5.52232 328813000.0
635 -0.01345 0.000312642 -417.495 2202.55 143.398 143.389 7.00788 8.8241 328801000.0
634 -0.01335 0.000312624 -417.518 2202.66 143.397 143.384 14.6621 17.0142 328791000.0
633 -0.01325 0.000312641 -417.493 2202.64 143.403 143.388 10.7337 8.54405 328796000.0
632 -0.01315 0.000312657 -417.474 2202.59 143.407 143.394 4.85844 0.476686 328808000.0
631 -0.01305 0.000312642 -417.49 2202.51 143.396 143.388 4.39529 8.54682 328785000.0
630 -0.01295 0.00031264 -417.498 2202.65 143.404 143.388 10.7518 8.92196 328791000.0
629 -0.01285 0.000312636 -417.503 2202.67 143.403 143.388 11.2836 9.30779 328789000.0
628 -0.01275 0.000312638 -417.499 2202.56 143.397 143.388 7.60168 8.15214 328782000.0
627 -0.01265 0.000312645 -417.492 2202.54 143.399 143.392 5.46779 6.08011 328795000.0
626 -0.01255 0.000312628 -417.513 2202.55 143.392 143.385 9.13081 13.0347 328777000.0
625 -0.01245 0.000312608 -417.539 2202.66 143.389 143.383 17.9354 21.641 328779000.0
624 -0.01235 0.00031259 -417.562 2202.62 143.379 143.38 18.9493 28.5596 328769000.0
623 -0.01225 0.0003126 -417.549 2202.68 143.387 143.381 21.144 26.2978 328764000.0
622 -0.01215 0.000312587 -417.568 2202.74 143.385 143.381 25.1836 28.4507 328769000.0
621 -0.01205 0.000312588 -417.569 2202.74 143.385 143.379 24.5426 28.9423 328759000.0
620 -0.01195 0.000312606 -417.541 2202.77 143.396 143.382 21.8457 19.0423 328764000.0
619 -0.01185 0.000312613 -417.538 2202.73 143.396 143.383 19.674 17.4628 328759000.0
618 -0.01175 0.000312608 -417.54 2202.83 143.4 143.382 24.9609 20.5634 328754000.0
617 -0.01165 0.000312606 -417.544 2202.78 143.396 143.382 22.5509 21.8284 328752000.0
616 -0.01155 0.000312596 -417.561 2202.67 143.385 143.379 22.2163 26.2242 328739000.0
615 -0.01145 0.000312576 -417.584 2202.68 143.376 143.376 25.8443 33.3048 328731000.0
614 -0.01135 0.000312571 -417.593 2202.77 143.38 143.377 29.4991 35.6892 328735000.0
613 -0.01125 0.000312549 -417.622 2202.74 143.368 143.372 34.084 43.6056 328722000.0
612 -0.01115 0.000312544 -417.627 2202.71 143.363 143.37 32.1788 43.0643 328711000.0
611 -0.01105 0.000312531 -417.644 2202.8 143.363 143.367 37.5519 46.5418 328696000.0
610 -0.01095 0.00031253 -417.648 2202.76 143.36 143.368 36.7529 49.1851 328690000.0
609 -0.01085 0.000312542 -417.63 2202.72 143.363 143.369 32.2515 39.4866 328678000.0
608 -0.01075 0.000312561 -417.607 2202.64 143.366 143.375 26.1783 31.0118 328681000.0
607 -0.01065 0.00031255 -417.622 2202.67 143.363 143.372 28.8538 34.6515 328667000.0
606 -0.01055 0.000312521 -417.659 2202.75 143.356 143.364 38.202 46.1274 328646000.0
605 -0.01045 0.000312506 -417.675 2202.83 143.354 143.363 44.6185 52.018 328639000.0
604 -0.01035 0.000312514 -417.666 2202.85 143.359 143.366 42.9336 47.5219 328639000.0
603 -0.01025 0.0003125 -417.687 2202.85 143.352 143.363 46.62 53.5589 328628000.0
602 -0.01015 0.000312489 -417.697 2202.82 143.346 143.361 45.3678 54.5579 328621000.0
601 -0.01005 0.000312479 -417.712 2202.9 143.346 143.359 52.3892 60.1088 328607000.0
600 -0.00995 0.000312459 -417.742 2202.92 143.338 143.356 56.119 66.2426 328602000.0
599 -0.00985 0.000312451 -417.746 2202.96 143.337 143.355 60.2613 69.8852 328588000.0
598 -0.00975 0.00031245 -417.752 2202.95 143.336 143.355 58.5042 67.9786 328579000.0
597 -0.00965 0.000312441 -417.764 2202.98 143.334 143.353 62.4854 70.1767 328568000.0
596 -0.00955 0.000312415 -417.795 2203.04 143.326 143.349 69.4776 78.7777 328552000.0
595 -0.00945 0.000312394 -417.824 2203.12 143.321 143.344 76.5367 83.7136 328535000.0
594 -0.00935 0.000312377 -417.85 2203.11 143.313 143.342 80.2579 89.4184 328521000.0
593 -0.00925 0.000312351 -417.88 2203.07 143.298 143.338 83.1925 98.5562 328496000.0
592 -0.00915 0.000312333 -417.906 2203.18 143.297 143.335 91.157 103.372 328479000.0
591 -0.00905 0.000312311 -417.934 2203.21 143.289 143.329 95.5418 109.334 328450000.0
590 -0.00895 0.000312291 -417.96 2203.28 143.285 143.327 102.856 113.333 328430000.0
589 -0.00885 0.000312293 -417.96 2203.34 143.289 143.326 103.582 108.421 328406000.0
588 -0.00875 0.000312262 -418.003 2203.44 143.281 143.322 114.549 119.854 328393000.0
587 -0.00865 0.000312223 -418.053 2203.39 143.26 143.313 121.542 134.338 328353000.0
586 -0.00855 0.000312208 -418.073 2203.41 143.255 143.313 122.649 132.969 328337000.0
585 -0.00845 0.00031218 -418.113 2203.43 143.243 143.306 129.655 140.475 328298000.0
584 -0.00835 0.000312143 -418.165 2203.55 143.234 143.299 143.215 153.106 328266000.0
583 -0.00825 0.000312104 -418.216 2203.62 143.221 143.293 151.896 162.403 328236000.0
582 -0.00815 0.000312051 -418.284 2203.71 143.202 143.282 165.908 178.243 328191000.0
581 -0.00805 0.000312026 -418.32 2203.73 143.192 143.28 172.095 182.035 328162000.0
580 -0.00795 0.000311978 -418.382 2203.75 143.171 143.271 181.476 193.681 328115000.0
579 -0.00785 0.000311934 -418.444 2203.8 143.154 143.261 191.221 201.0 328072000.0
578 -0.00775 0.000311889 -418.499 2203.83 143.135 143.254 200.865 204.896 328027000.0
577 -0.00765 0.000311838 -418.57 2203.92 143.118 143.245 215.84 214.812 327973000.0
576 -0.00755 0.000311779 -418.649 2203.92 143.091 143.236 225.432 229.856 327926000.0
575 -0.00745 0.000311706 -418.748 2204.06 143.067 143.222 246.004 250.312 327870000.0
574 -0.00735 0.000311634 -418.842 2204.21 143.043 143.212 265.814 267.314 327817000.0
573 -0.00725 0.000311552 -418.951 2204.39 143.017 143.195 287.339 284.756 327750000.0
572 -0.00715 0.000311485 -419.043 2204.48 142.993 143.183 305.842 297.521 327686000.0
571 -0.00705 0.000311395 -419.165 2204.63 142.961 143.168 327.771 317.106 327620000.0
570 -0.00695 0.000311319 -419.266 2204.7 142.93 143.153 344.855 328.758 327540000.0
569 -0.00685 0.000311221 -419.396 2204.73 142.888 143.137 364.829 349.716 327458000.0
568 -0.00675 0.000311118 -419.533 2204.93 142.853 143.119 392.543 373.507 327380000.0
567 -0.00665 0.00031101 -419.681 2205.03 142.81 143.099 417.892 393.763 327284000.0
566 -0.00655 0.000310902 -419.826 2205.11 142.766 143.08 440.677 412.042 327181000.0
565 -0.00645 0.00031077 -420.005 2205.21 142.711 143.057 470.179 441.814 327081000.0
564 -0.00635 0.000310634 -420.184 2205.36 142.658 143.031 501.553 466.228 326959000.0
563 -0.00625 0.000310498 -420.375 2205.5 142.605 143.008 533.83 488.571 326849000.0
562 -0.00615 0.000310333 -420.595 2205.59 142.535 142.978 569.558 520.324 326718000.0
561 -0.00605 0.000310156 -420.833 2205.74 142.464 142.945 608.753 551.295 326575000.0
560 -0.00595 0.000309974 -421.083 2205.88 142.39 142.914 648.822 581.72 326426000.0
559 -0.00585 0.000309762 -421.37 2206.07 142.304 142.875 698.915 625.95 326259000.0
558 -0.00575 0.000309561 -421.643 2206.18 142.219 142.838 741.955 655.792 326086000.0
557 -0.00565 0.000309318 -421.973 2206.34 142.118 142.794 794.033 700.921 325901000.0
556 -0.00555 0.000309066 -422.317 2206.56 142.015 142.749 851.989 745.2 325709000.0
555 -0.00545 0.000308819 -422.654 2206.72 141.913 142.704 906.36 780.323 325499000.0
554 -0.00535 0.000308536 -423.045 2206.89 141.794 142.653 967.874 825.063 325275000.0
553 -0.00525 0.000308215 -423.48 2207.04 141.656 142.594 1036.55 880.657 325030000.0
552 -0.00515 0.000307886 -423.938 2207.21 141.515 142.534 1109.0 935.148 324779000.0
551 -0.00505 0.000307545 -424.405 2207.35 141.368 142.47 1179.57 979.616 324495000.0
550 -0.00495 0.000307155 -424.945 2207.56 141.202 142.4 1265.23 1043.38 324201000.0
549 -0.00485 0.000306721 -425.545 2207.71 141.012 142.32 1355.47 1115.34 323874000.0
548 -0.00475 0.00030627 -426.173 2207.79 140.809 142.234 1448.13 1184.85 323526000.0
547 -0.00465 0.00030579 -426.844 2208.0 140.602 142.147 1550.9 1256.3 323168000.0
546 -0.00455 0.000305279 -427.555 2208.25 140.384 142.053 1661.6 1328.34 322785000.0
545 -0.00445 0.000304701 -428.368 2208.38 140.126 141.946 1781.02 1419.73 322359000.0
544 -0.00435 0.000304074 -429.252 2208.56 139.848 141.827 1911.76 1520.32 321900000.0
543 -0.00425 0.000303401 -430.202 2208.82 139.556 141.702 2057.73 1630.6 321416000.0
542 -0.00415 0.000302715 -431.179 2208.91 139.246 141.571 2197.29 1726.03 320894000.0
541 -0.00405 0.000301951 -432.269 2209.04 138.902 141.426 2356.45 1842.55 320336000.0
540 -0.00395 0.000301148 -433.422 2209.11 138.538 141.273 2520.62 1959.16 319731000.0
539 -0.00385 0.000300285 -434.668 2209.26 138.15 141.108 2700.31 2086.17 319095000.0
538 -0.00375 0.000299344 -436.037 2209.43 137.727 140.927 2899.19 2233.26 318409000.0
537 -0.00365 0.000298319 -437.535 2209.51 137.261 140.728 3112.46 2391.8 317672000.0
536 -0.00355 0.000297229 -439.135 2209.62 136.766 140.517 3341.59 2561.27 316888000.0
535 -0.00345 0.000296079 -440.838 2209.64 136.239 140.29 3578.63 2731.72 316047000.0
534 -0.00335 0.000294833 -442.706 2209.61 135.663 140.044 3836.8 2926.45 315149000.0
533 -0.00325 0.000293509 -444.704 2209.67 135.057 139.777 4117.74 3131.1 314189000.0
532 -0.00315 0.00029207 -446.895 2209.68 134.396 139.487 4421.24 3363.46 313164000.0
531 -0.00305 0.000290538 -449.251 2209.66 133.69 139.176 4745.9 3611.19 312066000.0
530 -0.00295 0.000288913 -451.778 2209.57 132.937 138.842 5092.09 3879.41 310900000.0
529 -0.00285 0.000287196 -454.478 2209.36 132.134 138.483 5455.86 4158.13 309657000.0
528 -0.00275 0.000285336 -457.443 2209.19 131.268 138.092 5855.84 4479.97 308327000.0
527 -0.00265 0.000283397 -460.573 2208.85 130.356 137.677 6270.23 4804.84 306913000.0
526 -0.00255 0.000281313 -463.984 2208.41 129.372 137.226 6719.51 5172.83 305405000.0
525 -0.00245 0.000279098 -467.666 2207.97 128.328 136.74 7201.6 5574.98 303811000.0
524 -0.00235 0.000276758 -471.618 2207.39 127.218 136.219 7714.35 6015.48 302117000.0
523 -0.00225 0.000274291 -475.861 2206.69 126.044 135.658 8260.11 6486.69 300321000.0
522 -0.00215 0.000271677 -480.44 2205.93 124.8 135.056 8845.0 7006.28 298432000.0
521 -0.00205 0.000268939 -485.331 2204.99 123.49 134.409 9463.52 7562.23 296428000.0
520 -0.00195 0.000266075 -490.556 2203.83 122.11 133.722 10112.7 8161.03 294321000.0
519 -0.00185 0.000263082 -496.139 2202.45 120.661 132.987 10797.1 8803.93 292104000.0
518 -0.00175 0.000259949 -502.116 2200.81 119.135 132.2 11519.9 9501.77 289773000.0
517 -0.00165 0.000256674 -508.525 2199.03 117.539 131.358 12289.3 10264.9 287336000.0
516 -0.00155 0.000253278 -515.342 2196.86 115.869 130.461 13089.3 11077.6 284786000.0
515 -0.00145 0.000249759 -522.606 2194.49 114.136 129.507 13934.2 11956.2 282135000.0
514 -0.00135 0.000246152 -530.26 2191.61 112.341 128.503 14801.1 12873.1 279380000.0
513 -0.00125 0.000242429 -538.407 2188.41 110.48 127.434 15709.8 13861.9 276512000.0
512 -0.00115 0.000238586 -547.075 2184.83 108.551 126.298 16661.2 14929.2 273556000.0
511 -0.00105 0.000234636 -556.283 2180.68 106.551 125.091 17647.5 16071.4 270498000.0
510 -0.00095 0.000230616 -565.988 2175.98 104.5 123.82 18659.8 17268.5 267348000.0
509 -0.00085 0.000226537 -576.172 2170.75 102.404 122.486 19699.3 18524.6 264130000.0
508 -0.00075 0.00022241 -586.866 2164.88 100.267 121.088 20759.2 19835.4 260844000.0
507 -0.00065 0.000218227 -598.113 2158.32 98.0832 119.617 21844.2 21216.0 257492000.0
506 -0.00055 0.000214014 -609.889 2150.79 95.8539 118.077 22935.2 22650.6 254077000.0
505 -0.00045 0.000209779 -622.202 2142.62 93.6001 116.467 24044.5 24136.2 250625000.0
504 -0.00035 0.00020554 -635.036 2133.56 91.3214 114.791 25158.1 25666.0 247144000.0
503 -0.00025 0.000201303 -648.398 2123.45 89.0144 113.047 26268.2 27240.7 243639000.0
502 -0.00015 0.000197096 -662.245 2112.38 86.7 111.24 27369.8 28834.9 240119000.0
501 -5e-05 0.000192925 -676.561 2100.29 84.3794 109.373 28456.1 30446.8 236601000.0
500 5e-05 0.000188799 -691.343 2086.89 82.0478 107.443 29512.2 32067.4 233069000.0
499 0.00015 0.000184736 -706.553 2072.45 79.7268 105.462 30544.9 33688.5 229577000.0
498 0.00025 0.000180729 -722.215 2056.78 77.4078 103.419 31542.5 35300.8 226088000.0
497 0.00035 0.000176816 -738.2 2039.78 75.106 101.334 32487.6 36873.9 222620000.0
496 0.00045 0.000172987 -754.539 2021.64 72.8258 99.2055 33389.5 38415.2 219197000.0
495 0.00055 0.000169248 -771.21 2002.04 70.5614 97.0326 34228.6 39907.0 215791000.0
494 0.00065 0.000165611 -788.145 1981.22 68.327 94.8251 35006.7 41335.5 212422000.0
493 0.00075 0.000162087 -805.286 1959.17 66.1284 92.5921 35716.4 42689.2 209088000.0
492 0.00085 0.000158671 -822.621 1935.91 63.9666 90.3348 36357.8 43961.0 205788000.0
491 0.00095 0.000155366 -840.123 1911.2 61.8347 88.0547 36915.8 45145.0 202507000.0
490 0.00105 0.000152169 -857.773 1885.38 59.744 85.7553 37400.4 46231.8 199256000.0
489 0.00115 0.000149095 -875.451 1858.31 57.6967 83.453 37797.1 47207.3 196020000.0
488 0.00125 0.000146149 -893.107 1830.18 55.7007 81.1536 38107.1 48061.0 192788000.0
487 0.00135 0.00014332 -910.735 1800.95 53.7502 78.8583 38331.6 48800.2 189567000.0
486 0.00145 0.000140599 -928.363 1770.87 51.8488 76.5633 38480.0 49425.3 186364000.0
485 0.00155 0.000138003 -945.824 1739.91 50.0015 74.2884 38538.7 49916.4 183140000.0
484 0.00165 0.000135519 -963.163 1708.06 48.2028 72.03 38513.4 50286.3 179903000.0
483 0.00175 0.000133145 -980.339 1675.6 46.4583 69.7935 38413.4 50534.0 176663000.0
482 0.00185 0.000130884 -997.276 1642.55 44.7687 67.5876 38234.3 50655.8 173395000.0
481 0.00195 0.00012873 -1013.96 1608.96 43.1313 65.4149 37978.7 50660.7 170104000.0
480 0.00205 0.000126683 -1030.34 1574.93 41.5479 63.2802 37651.6 50548.9 166779000.0
479 0.00215 0.000124731 -1046.48 1540.63 40.0167 61.18 37261.2 50328.4 163429000.0
478 0.00225 0.000122866 -1062.35 1505.92 38.5305 59.112 36805.6 50006.3 160045000.0
477 0.00235 0.0001211 -1077.85 1471.25 37.1024 57.0941 36297.8 49583.8 156641000.0
476 0.00245 0.000119425 -1092.97 1436.54 35.7258 55.1237 35736.4 49068.8 153207000.0
475 0.00255 0.000117834 -1107.71 1401.91 34.4003 53.2035 35127.8 48469.8 149749000.0
474 0.00265 0.000116324 -1122.1 1367.38 33.1229 51.3299 34476.5 47792.7 146265000.0
473 0.00275 0.000114895 -1136.05 1333.25 31.8996 49.5125 33792.4 47043.2 142769000.0
472 0.00285 0.000113528 -1149.73 1299.11 30.7128 47.7306 33070.9 46232.9 139252000.0
471 0.00295 0.000112251 -1162.82 1265.84 29.5893 46.0263 32331.8 45366.4 135747000.0
470 0.00305 0.000111026 -1175.64 1232.57 28.4976 44.3558 31559.1 44448.6 132211000.0
469 0.00315 0.00010987 -1188.01 1200.0 27.4555 42.7447 30774.5 43492.1 128701000.0
468 0.00325 0.000108777 -1199.95 1168.03 26.4584 41.1894 29976.2 42497.4 125193000.0
467 0.00335 0.000107741 -1211.49 1136.56 25.5001 39.6871 29163.6 41475.3 121693000.0
466 0.00345 0.000106758 -1222.65 1105.74 24.5823 38.2322 28345.1 40425.0 118209000.0
465 0.00355 0.000105818 -1233.5 1075.42 23.6978 36.8189 27519.9 39355.6 114750000.0
464 0.00365 0.000104942 -1243.81 1046.24 22.8639 35.4775 26706.4 38282.3 111352000.0
463 0.00375 0.000104106 -1253.79 1017.47 22.058 34.1758 25884.1 37194.1 107959000.0
462 0.00385 0.000103315 -1263.39 989.476 21.2881 32.9257 25068.7 36106.4 104619000.0
461 0.00395 0.000102566 -1272.62 962.338 20.5543 31.7233 24263.3 35017.4 101328000.0
460 0.00405 0.000101857 -1281.47 935.949 19.8524 30.5699 23466.4 33935.1 98087700.0
459 0.00415 0.000101189 -1289.95 910.428 19.1843 29.4664 22683.3 32863.1 94909900.0
458 0.00425 0.000100553 -1298.1 885.612 18.5441 28.4042 21910.0 31799.3 91782500.0
457 0.00435 9.9948e-05 -1305.95 861.515 17.9311 27.3811 21148.7 30745.0 88709100.0
456 0.00445 9.93735e-05 -1313.51 838.054 17.3425 26.396 20399.0 29704.8 85697100.0
455 0.00455 9.88313e-05 -1320.72 815.542 16.7846 25.4574 19670.3 28685.1 82761900.0
454 0.00465 9.83191e-05 -1327.59 793.886 16.2542 24.5614 18961.6 27686.8 79902200.0
453 0.00475 9.78358e-05 -1334.15 772.967 15.7481 23.7076 18269.7 26713.6 77115800.0