ITEM: TIMESTEP
10000
ITEM: NUMBER OF CELLS
800
ITEM: BOX BOUNDS os pp pp
-0.05 0.03
-0.001 0.001
-0.001 0.001
ITEM: CELLS id f_1[1] f_1[2] f_1[3] f_1[4] f_1[5] f_1[6] f_1[7] f_1[8] f_1[9] 
1 -0.04995 8.8341e-05 1477.54 273.116 5.02434 5.02301 -0.00736635 -0.0366125 1.42663e+06 
2 -0.04985 8.83407e-05 1477.54 273.117 5.02434 5.02312 -0.0274097 -0.121387 1.42673e+06 
3 -0.04975 8.83413e-05 1477.54 273.118 5.0244 5.02324 -0.0448716 -0.165532 1.42685e+06 
4 -0.04965 8.83414e-05 1477.54 273.119 5.02443 5.02336 -0.0701461 -0.20259 1.42694e+06 
5 -0.04955 8.83401e-05 1477.54 273.119 5.02434 5.02326 -0.0934617 -0.261172 1.42697e+06 
6 -0.04945 8.83417e-05 1477.53 273.122 5.02449 5.02345 -0.120691 -0.296661 1.42708e+06 
7 -0.04935 8.83413e-05 1477.53 273.122 5.02447 5.02354 -0.111854 -0.322222 1.42717e+06 
8 -0.04925 8.83407e-05 1477.53 273.122 5.02443 5.02343 -0.13319 -0.374507 1.42715e+06 
9 -0.04915 8.83422e-05 1477.53 273.121 5.02449 5.02355 -0.156715 -0.394158 1.42725e+06 
10 -0.04905 8.83405e-05 1477.53 273.123 5.02445 5.02351 -0.157484 -0.377593 1.42728e+06 
11 -0.04895 8.83412e-05 1477.53 273.122 5.02446 5.02352 -0.171083 -0.435472 1.42734e+06 
12 -0.04885 8.83409e-05 1477.54 273.122 5.02444 5.0236 -0.191917 -0.460645 1.42739e+06 
13 -0.04875 8.83417e-05 1477.53 273.12 5.02447 5.02366 -0.200885 -0.486431 1.42743e+06 
14 -0.04865 8.83416e-05 1477.53 273.122 5.0245 5.02375 -0.184172 -0.469487 1.42752e+06 
15 -0.04855 8.83412e-05 1477.53 273.122 5.02446 5.02366 -0.227083 -0.52608 1.42749e+06 
16 -0.04845 8.83411e-05 1477.53 273.126 5.02452 5.02375 -0.201216 -0.485947 1.42754e+06 
17 -0.04835 8.83419e-05 1477.53 273.124 5.02454 5.02378 -0.222455 -0.517301 1.42758e+06 
18 -0.04825 8.83412e-05 1477.53 273.123 5.02448 5.0237 -0.239357 -0.560194 1.42756e+06 
19 -0.04815 8.83412e-05 1477.53 273.126 5.02454 5.02385 -0.248378 -0.548161 1.42765e+06 
20 -0.04805 8.83415e-05 1477.53 273.125 5.02453 5.0238 -0.271685 -0.569483 1.42766e+06 
21 -0.04795 8.83409e-05 1477.53 273.124 5.02448 5.02367 -0.271225 -0.599784 1.42761e+06 
22 -0.04785 8.83411e-05 1477.53 273.124 5.02449 5.02369 -0.279265 -0.610739 1.42762e+06 
23 -0.04775 8.83408e-05 1477.53 273.125 5.0245 5.02369 -0.289783 -0.6058 1.42766e+06 
24 -0.04765 8.83417e-05 1477.53 273.123 5.02452 5.02375 -0.249063 -0.526576 1.42769e+06 
25 -0.04755 8.83407e-05 1477.53 273.124 5.02447 5.02366 -0.293861 -0.618083 1.42768e+06 
34 -0.04665 8.83415e-05 1477.53 273.125 5.02454 5.02389 -0.244711 -0.506399 1.42786e+06 
33 -0.04675 8.83414e-05 1477.53 273.124 5.02452 5.02385 -0.292455 -0.564888 1.42787e+06 
35 -0.04655 8.83409e-05 1477.53 273.125 5.0245 5.02386 -0.2895 -0.556604 1.42791e+06 
36 -0.04645 8.83415e-05 1477.53 273.125 5.02453 5.02398 -0.286235 -0.56184 1.42795e+06 
37 -0.04635 8.83408e-05 1477.53 273.123 5.02447 5.0239 -0.303553 -0.587258 1.42799e+06 
38 -0.04625 8.83418e-05 1477.53 273.128 5.02461 5.02406 -0.309371 -0.589155 1.42808e+06 
39 -0.04615 8.83406e-05 1477.53 273.123 5.02445 5.02388 -0.288977 -0.517683 1.42799e+06 
40 -0.04605 8.83412e-05 1477.53 273.125 5.02452 5.02395 -0.284368 -0.497408 1.42804e+06 
41 -0.04595 8.83415e-05 1477.53 273.126 5.02456 5.02407 -0.311865 -0.525999 1.42814e+06 
42 -0.04585 8.83416e-05 1477.53 273.126 5.02456 5.02406 -0.311978 -0.540261 1.42815e+06 
43 -0.04575 8.83416e-05 1477.53 273.127 5.02458 5.02405 -0.296527 -0.51718 1.42815e+06 
44 -0.04565 8.83403e-05 1477.53 273.125 5.02446 5.0239 -0.290949 -0.488191 1.4281e+06 
45 -0.04555 8.83414e-05 1477.53 273.127 5.02456 5.02406 -0.318948 -0.524167 1.4282e+06 
46 -0.04545 8.83415e-05 1477.53 273.125 5.02453 5.02393 -0.328089 -0.536741 1.42819e+06 
47 -0.04535 8.83412e-05 1477.53 273.127 5.02456 5.02401 -0.356625 -0.584789 1.42826e+06 
48 -0.04525 8.8341e-05 1477.53 273.128 5.02456 5.02397 -0.333426 -0.533453 1.42824e+06 
49 -0.04515 8.83411e-05 1477.53 273.126 5.02453 5.02396 -0.316725 -0.511991 1.42824e+06 
50 -0.04505 8.83414e-05 1477.53 273.129 5.02461 5.02402 -0.327458 -0.495454 1.42824e+06 
26 -0.04745 8.83419e-05 1477.53 273.124 5.02455 5.02379 -0.306023 -0.601455 1.42776e+06 
27 -0.04735 8.83411e-05 1477.53 273.124 5.02449 5.02381 -0.295102 -0.612218 1.42783e+06 
28 -0.04725 8.83415e-05 1477.53 273.125 5.02453 5.02386 -0.275935 -0.595217 1.42781e+06 
29 -0.04715 8.83409e-05 1477.53 273.126 5.02452 5.02376 -0.265135 -0.565984 1.42781e+06 
30 -0.04705 8.83409e-05 1477.53 273.123 5.02446 5.02361 -0.276869 -0.559526 1.42773e+06 
31 -0.04695 8.8341e-05 1477.53 273.124 5.02449 5.02374 -0.253136 -0.527172 1.42778e+06 
32 -0.04685 8.83414e-05 1477.53 273.124 5.02452 5.02387 -0.269083 -0.543224 1.42785e+06 
67 -0.04335 8.83413e-05 1477.53 273.125 5.02453 5.02418 -0.315657 -0.59115 1.42848e+06 
65 -0.04355 8.83415e-05 1477.53 273.127 5.02458 5.0241 -0.306415 -0.544683 1.42843e+06 
66 -0.04345 8.83409e-05 1477.53 273.126 5.02452 5.02413 -0.290883 -0.543751 1.42843e+06 
68 -0.04325 8.83417e-05 1477.53 273.127 5.02459 5.02428 -0.310731 -0.600584 1.42857e+06 
69 -0.04315 8.83415e-05 1477.53 273.128 5.02459 5.02437 -0.355573 -0.642755 1.42863e+06 
70 -0.04305 8.83415e-05 1477.53 273.126 5.02455 5.02431 -0.32265 -0.587054 1.4286e+06 
71 -0.04295 8.83411e-05 1477.53 273.127 5.02455 5.02429 -0.338432 -0.597644 1.42856e+06 
72 -0.04285 8.83413e-05 1477.53 273.126 5.02454 5.02432 -0.29258 -0.555739 1.42858e+06 
73 -0.04275 8.83417e-05 1477.53 273.127 5.02458 5.0244 -0.314213 -0.570737 1.42859e+06 
74 -0.04265 8.83412e-05 1477.53 273.126 5.02453 5.02439 -0.303955 -0.536383 1.42861e+06 
75 -0.04255 8.83417e-05 1477.53 273.126 5.02456 5.02448 -0.310889 -0.541496 1.42865e+06 
51 -0.04495 8.83407e-05 1477.53 273.123 5.02446 5.02384 -0.322041 -0.473486 1.42818e+06 
52 -0.04485 8.83409e-05 1477.53 273.127 5.02453 5.02396 -0.313652 -0.472722 1.42823e+06 
53 -0.04475 8.83406e-05 1477.53 273.127 5.02452 5.02392 -0.296284 -0.421793 1.42823e+06 
54 -0.04465 8.83412e-05 1477.53 273.126 5.02454 5.0239 -0.302596 -0.430965 1.42821e+06 
55 -0.04455 8.83416e-05 1477.53 273.127 5.02459 5.02401 -0.282269 -0.409249 1.42828e+06 
56 -0.04445 8.83399e-05 1477.53 273.126 5.02447 5.02385 -0.325912 -0.450074 1.42821e+06 
57 -0.04435 8.83425e-05 1477.53 273.126 5.02461 5.02408 -0.300473 -0.45549 1.42835e+06 
58 -0.04425 8.83411e-05 1477.53 273.125 5.02452 5.024 -0.330132 -0.526515 1.42833e+06 
59 -0.04415 8.83411e-05 1477.53 273.128 5.02457 5.02407 -0.309617 -0.497027 1.42836e+06 
60 -0.04405 8.83405e-05 1477.53 273.128 5.02452 5.02405 -0.325743 -0.527305 1.4284e+06 
61 -0.04395 8.83415e-05 1477.53 273.126 5.02455 5.02413 -0.313734 -0.546269 1.42841e+06 
62 -0.04385 8.83411e-05 1477.53 273.126 5.02453 5.02403 -0.303083 -0.549112 1.42836e+06 
63 -0.04375 8.83415e-05 1477.53 273.127 5.02457 5.02414 -0.286376 -0.532254 1.42843e+06 
64 -0.04365 8.83413e-05 1477.53 273.127 5.02456 5.0242 -0.292126 -0.500692 1.42844e+06 
100 -0.04005 8.83414e-05 1477.53 273.124 5.02452 5.02441 -0.261216 -0.400098 1.42871e+06 
97 -0.04035 8.83414e-05 1477.53 273.124 5.02452 5.02455 -0.28242 -0.459238 1.42877e+06 
98 -0.04025 8.83413e-05 1477.53 273.126 5.02454 5.02445 -0.244184 -0.384581 1.42874e+06 
99 -0.04015 8.83412e-05 1477.53 273.124 5.02449 5.02447 -0.242225 -0.361698 1.42872e+06 
76 -0.04245 8.83409e-05 1477.53 273.127 5.02454 5.02445 -0.305223 -0.538864 1.42867e+06 
77 -0.04235 8.83419e-05 1477.53 273.126 5.02458 5.0245 -0.299656 -0.521876 1.42868e+06 
78 -0.04225 8.83414e-05 1477.53 273.126 5.02455 5.0244 -0.275894 -0.473754 1.42865e+06 
79 -0.04215 8.83417e-05 1477.53 273.125 5.02455 5.0244 -0.273779 -0.460682 1.42863e+06 
80 -0.04205 8.83414e-05 1477.53 273.126 5.02454 5.02442 -0.286219 -0.470065 1.42869e+06 
81 -0.04195 8.83416e-05 1477.53 273.126 5.02456 5.02447 -0.284389 -0.444244 1.42869e+06 
82 -0.04185 8.83415e-05 1477.53 273.124 5.02451 5.02433 -0.282221 -0.412904 1.42859e+06 
83 -0.04175 8.83407e-05 1477.53 273.126 5.0245 5.02438 -0.259432 -0.396671 1.42863e+06 
84 -0.04165 8.83417e-05 1477.53 273.127 5.02458 5.02444 -0.262713 -0.36291 1.42867e+06 
85 -0.04155 8.83411e-05 1477.53 273.124 5.0245 5.02432 -0.269208 -0.404855 1.42863e+06 
86 -0.04145 8.83418e-05 1477.53 273.124 5.02454 5.02432 -0.25557 -0.397539 1.42859e+06 
87 -0.04135 8.83407e-05 1477.53 273.125 5.0245 5.0243 -0.256772 -0.407901 1.42859e+06 
88 -0.04125 8.83417e-05 1477.53 273.123 5.02451 5.02431 -0.242504 -0.389342 1.42861e+06 
89 -0.04115 8.83415e-05 1477.53 273.127 5.02457 5.02449 -0.278946 -0.441161 1.42872e+06 
90 -0.04105 8.83408e-05 1477.53 273.124 5.02448 5.0244 -0.290163 -0.459259 1.42866e+06 
91 -0.04095 8.83418e-05 1477.53 273.128 5.0246 5.02448 -0.262859 -0.41481 1.42868e+06 
92 -0.04085 8.8342e-05 1477.53 273.125 5.02457 5.02444 -0.26036 -0.426487 1.42869e+06 
93 -0.04075 8.8341e-05 1477.53 273.126 5.02452 5.02439 -0.272605 -0.433682 1.42868e+06 
94 -0.04065 8.83412e-05 1477.53 273.124 5.02451 5.02435 -0.276228 -0.414422 1.42864e+06 
95 -0.04055 8.83418e-05 1477.53 273.126 5.02458 5.02444 -0.248151 -0.422029 1.42867e+06 
96 -0.04045 8.8341e-05 1477.53 273.126 5.02453 5.02459 -0.275376 -0.475837 1.42879e+06 
101 -0.03995 8.83415e-05 1477.53 273.124 5.02452 5.02441 -0.261232 -0.410392 1.4287e+06 
102 -0.03985 8.83414e-05 1477.53 273.124 5.02452 5.02448 -0.244794 -0.364591 1.42875e+06 
103 -0.03975 8.83419e-05 1477.53 273.125 5.02456 5.02446 -0.25905 -0.361428 1.42875e+06 
104 -0.03965 8.83411e-05 1477.53 273.123 5.02448 5.02438 -0.230865 -0.348427 1.42871e+06 
105 -0.03955 8.83415e-05 1477.53 273.124 5.02452 5.02438 -0.238932 -0.392723 1.4287e+06 
106 -0.03945 8.83415e-05 1477.53 273.126 5.02455 5.0245 -0.250115 -0.407517 1.42879e+06 
107 -0.03935 8.83412e-05 1477.53 273.124 5.0245 5.02442 -0.250951 -0.428847 1.4288e+06 
108 -0.03925 8.83414e-05 1477.53 273.124 5.0245 5.02451 -0.236142 -0.41661 1.4288e+06 
109 -0.03915 8.83417e-05 1477.53 273.123 5.02451 5.02446 -0.216594 -0.402589 1.42875e+06 
110 -0.03905 8.83412e-05 1477.53 273.126 5.02454 5.0245 -0.221513 -0.429386 1.42881e+06 
111 -0.03895 8.83416e-05 1477.53 273.124 5.02453 5.02454 -0.231881 -0.436047 1.42885e+06 
112 -0.03885 8.8342e-05 1477.53 273.124 5.02455 5.02463 -0.236703 -0.459883 1.42888e+06 
113 -0.03875 8.83421e-05 1477.53 273.125 5.02457 5.02467 -0.27123 -0.483894 1.42888e+06 
114 -0.03865 8.83423e-05 1477.53 273.125 5.02458 5.02468 -0.270952 -0.480545 1.42893e+06 
115 -0.03855 8.83405e-05 1477.53 273.124 5.02447 5.02458 -0.296495 -0.50996 1.42891e+06 
116 -0.03845 8.83427e-05 1477.53 273.126 5.02462 5.02473 -0.27846 -0.488522 1.42899e+06 
117 -0.03835 8.83408e-05 1477.53 273.125 5.02449 5.02461 -0.267501 -0.48196 1.42895e+06 
118 -0.03825 8.83426e-05 1477.53 273.125 5.0246 5.02474 -0.259629 -0.499857 1.42902e+06 
119 -0.03815 8.83409e-05 1477.53 273.124 5.0245 5.02471 -0.291717 -0.526565 1.42905e+06 
120 -0.03805 8.83418e-05 1477.53 273.125 5.02455 5.02472 -0.279091 -0.503172 1.42909e+06 
121 -0.03795 8.83417e-05 1477.53 273.126 5.02456 5.02458 -0.289304 -0.497318 1.42905e+06 
122 -0.03785 8.83415e-05 1477.53 273.126 5.02455 5.02455 -0.298913 -0.493916 1.42902e+06 
123 -0.03775 8.83419e-05 1477.53 273.124 5.02454 5.02461 -0.26258 -0.421508 1.42901e+06 
124 -0.03765 8.83412e-05 1477.53 273.124 5.0245 5.02452 -0.300384 -0.498531 1.42902e+06 
125 -0.03755 8.83414e-05 1477.53 273.126 5.02454 5.02451 -0.287937 -0.446922 1.42901e+06 
134 -0.03665 8.83416e-05 1477.53 273.126 5.02457 5.02446 -0.249088 -0.391462 1.42919e+06 
129 -0.03715 8.83415e-05 1477.53 273.126 5.02456 5.02453 -0.301659 -0.493327 1.42916e+06 
130 -0.03705 8.83406e-05 1477.53 273.125 5.02448 5.02428 -0.315372 -0.552725 1.42911e+06 
131 -0.03695 8.83416e-05 1477.53 273.126 5.02456 5.02444 -0.301669 -0.533861 1.42916e+06 
132 -0.03685 8.83417e-05 1477.53 273.124 5.02454 5.02445 -0.311181 -0.500583 1.42917e+06 
133 -0.03675 8.83408e-05 1477.53 273.125 5.0245 5.02435 -0.306056 -0.47456 1.4292e+06 
135 -0.03655 8.83413e-05 1477.53 273.124 5.0245 5.02432 -0.275418 -0.435261 1.42918e+06 
136 -0.03645 8.83413e-05 1477.53 273.125 5.02453 5.02436 -0.258244 -0.422296 1.42923e+06 
137 -0.03635 8.83412e-05 1477.53 273.125 5.02451 5.02433 -0.298989 -0.449836 1.42929e+06 
138 -0.03625 8.83413e-05 1477.53 273.124 5.0245 5.02429 -0.275584 -0.410319 1.42928e+06 
139 -0.03615 8.83414e-05 1477.53 273.124 5.02451 5.02427 -0.288963 -0.412422 1.42935e+06 
140 -0.03605 8.83411e-05 1477.53 273.127 5.02455 5.02433 -0.276555 -0.408041 1.42937e+06 
141 -0.03595 8.83412e-05 1477.53 273.123 5.02447 5.02429 -0.273962 -0.410968 1.42931e+06 
142 -0.03585 8.83414e-05 1477.53 273.125 5.02453 5.02426 -0.237277 -0.372791 1.42929e+06 
143 -0.03575 8.83416e-05 1477.53 273.126 5.02457 5.02443 -0.246566 -0.352639 1.42942e+06 
144 -0.03565 8.83408e-05 1477.53 273.125 5.0245 5.02428 -0.287471 -0.421838 1.42941e+06 
145 -0.03555 8.83418e-05 1477.53 273.125 5.02456 5.02436 -0.274679 -0.346409 1.42948e+06 
146 -0.03545 8.83416e-05 1477.53 273.126 5.02457 5.02436 -0.282299 -0.321297 1.42953e+06 
147 -0.03535 8.83407e-05 1477.53 273.127 5.02453 5.02427 -0.29775 -0.329297 1.42953e+06 
148 -0.03525 8.83415e-05 1477.53 273.127 5.02457 5.02439 -0.305477 -0.352613 1.42966e+06 
149 -0.03515 8.8342e-05 1477.53 273.126 5.02459 5.02444 -0.33791 -0.392559 1.42973e+06 
150 -0.03505 8.8341e-05 1477.53 273.127 5.02455 5.02439 -0.299454 -0.359968 1.42969e+06 
126 -0.03745 8.83413e-05 1477.53 273.124 5.02452 5.02447 -0.292135 -0.417596 1.42902e+06 
127 -0.03735 8.8341e-05 1477.53 273.125 5.0245 5.02445 -0.27544 -0.446864 1.42905e+06 
128 -0.03725 8.83414e-05 1477.53 273.125 5.02454 5.02442 -0.325337 -0.479932 1.4291e+06 
167 -0.03335 8.83416e-05 1477.53 273.132 5.02466 5.02446 -0.572849 -0.674416 1.43068e+06 
161 -0.03395 8.8341e-05 1477.53 273.128 5.02457 5.02439 -0.373791 -0.460807 1.43014e+06 
162 -0.03385 8.83418e-05 1477.53 273.126 5.02457 5.02439 -0.421701 -0.478552 1.43024e+06 
163 -0.03375 8.83415e-05 1477.53 273.132 5.02466 5.02444 -0.47549 -0.561233 1.43052e+06 
164 -0.03365 8.83416e-05 1477.53 273.128 5.0246 5.02441 -0.434576 -0.549127 1.43034e+06 
165 -0.03355 8.8342e-05 1477.53 273.131 5.02467 5.02447 -0.465306 -0.572875 1.43041e+06 
166 -0.03345 8.83417e-05 1477.53 273.129 5.02462 5.02446 -0.48013 -0.609149 1.43051e+06 
168 -0.03325 8.83411e-05 1477.53 273.133 5.02465 5.02445 -0.528044 -0.624762 1.43064e+06 
169 -0.03315 8.83419e-05 1477.53 273.131 5.02468 5.02456 -0.539714 -0.680803 1.43065e+06 
170 -0.03305 8.83419e-05 1477.53 273.133 5.0247 5.02464 -0.547683 -0.694509 1.43066e+06 
171 -0.03295 8.8342e-05 1477.53 273.133 5.02471 5.02466 -0.554576 -0.712605 1.43075e+06 
172 -0.03285 8.83413e-05 1477.52 273.133 5.02467 5.02464 -0.636316 -0.827148 1.4309e+06 
173 -0.03275 8.83417e-05 1477.53 273.135 5.02472 5.02467 -0.629544 -0.829642 1.43092e+06 
174 -0.03265 8.83424e-05 1477.53 273.134 5.02475 5.02473 -0.603422 -0.806705 1.43097e+06 
175 -0.03255 8.83415e-05 1477.53 273.133 5.02469 5.0247 -0.583797 -0.834765 1.43099e+06 
151 -0.03495 8.83415e-05 1477.53 273.125 5.02454 5.02436 -0.332764 -0.401897 1.42971e+06 
152 -0.03485 8.83415e-05 1477.53 273.128 5.02458 5.02448 -0.361775 -0.470409 1.42987e+06 
153 -0.03475 8.83419e-05 1477.53 273.127 5.0246 5.02455 -0.381437 -0.48987 1.42998e+06 
154 -0.03465 8.83405e-05 1477.53 273.129 5.02455 5.02441 -0.373136 -0.446601 1.42986e+06 
155 -0.03455 8.83419e-05 1477.53 273.128 5.02461 5.02447 -0.384643 -0.443525 1.42996e+06 
156 -0.03445 8.83412e-05 1477.53 273.129 5.0246 5.02448 -0.37006 -0.431923 1.42999e+06 
157 -0.03435 8.83413e-05 1477.53 273.129 5.02459 5.02443 -0.426902 -0.515947 1.43016e+06 
158 -0.03425 8.83411e-05 1477.53 273.13 5.02461 5.02449 -0.411325 -0.521207 1.43021e+06 
159 -0.03415 8.83414e-05 1477.53 273.129 5.0246 5.02438 -0.406317 -0.522831 1.43012e+06 
160 -0.03405 8.83422e-05 1477.53 273.127 5.02461 5.02448 -0.373285 -0.460068 1.43015e+06 
200 -0.03005 8.8342e-05 1477.52 273.155 5.02511 5.02545 -1.4367 -2.04108 1.43444e+06 
193 -0.03075 8.83414e-05 1477.52 273.149 5.02497 5.02531 -1.23198 -1.79177 1.43336e+06 
194 -0.03065 8.83422e-05 1477.52 273.152 5.02506 5.02541 -1.23049 -1.7836 1.43352e+06 
195 -0.03055 8.83417e-05 1477.52 273.15 5.025 5.02531 -1.22412 -1.77551 1.43353e+06 
196 -0.03045 8.83422e-05 1477.52 273.152 5.02507 5.02531 -1.22081 -1.75939 1.43354e+06 
197 -0.03035 8.83424e-05 1477.52 273.152 5.02507 5.02547 -1.2613 -1.80071 1.43387e+06 
198 -0.03025 8.83411e-05 1477.52 273.154 5.02504 5.02543 -1.33389 -1.87722 1.4341e+06 
199 -0.03015 8.83426e-05 1477.52 273.155 5.02514 5.0255 -1.35074 -1.92705 1.43427e+06 
176 -0.03245 8.83411e-05 1477.53 273.133 5.02465 5.02472 -0.635964 -0.92873 1.43114e+06 
177 -0.03235 8.83421e-05 1477.53 273.134 5.02473 5.02469 -0.61416 -0.861478 1.43114e+06 
178 -0.03225 8.83416e-05 1477.53 273.135 5.02472 5.02476 -0.658783 -0.916034 1.4313e+06 
179 -0.03215 8.83414e-05 1477.53 273.134 5.0247 5.02468 -0.646184 -0.906566 1.4313e+06 
180 -0.03205 8.8342e-05 1477.53 273.134 5.02474 5.02483 -0.671291 -0.971052 1.43148e+06 
181 -0.03195 8.83417e-05 1477.53 273.135 5.02473 5.02486 -0.728241 -1.0532 1.43153e+06 
182 -0.03185 8.83409e-05 1477.53 273.137 5.02473 5.02487 -0.757637 -1.11781 1.43173e+06 
183 -0.03175 8.83416e-05 1477.53 273.137 5.02477 5.02502 -0.800958 -1.18271 1.43188e+06 
184 -0.03165 8.83425e-05 1477.52 273.139 5.02486 5.02511 -0.879151 -1.30133 1.43221e+06 
185 -0.03155 8.83418e-05 1477.52 273.141 5.02485 5.02512 -0.890104 -1.33251 1.43224e+06 
186 -0.03145 8.83417e-05 1477.52 273.141 5.02484 5.02509 -0.896882 -1.34225 1.43228e+06 
187 -0.03135 8.83417e-05 1477.52 273.142 5.02487 5.02514 -0.92166 -1.36836 1.43238e+06 
188 -0.03125 8.83416e-05 1477.52 273.143 5.02487 5.02516 -0.972128 -1.43849 1.43247e+06 
189 -0.03115 8.8342e-05 1477.52 273.143 5.0249 5.02519 -1.02996 -1.49667 1.43269e+06 
190 -0.03105 8.83416e-05 1477.52 273.146 5.02494 5.02524 -1.07734 -1.56678 1.4328e+06 
191 -0.03095 8.83416e-05 1477.52 273.149 5.02498 5.02535 -1.15852 -1.726 1.43318e+06 
192 -0.03085 8.83426e-05 1477.52 273.15 5.02505 5.02546 -1.17091 -1.69348 1.43325e+06 
201 -0.02995 8.83418e-05 1477.52 273.157 5.02513 5.0255 -1.40723 -2.00509 1.43452e+06 
225 -0.02755 8.83428e-05 1477.51 273.19 5.02581 5.02676 -2.82088 -4.27639 1.44141e+06 
202 -0.02985 8.83421e-05 1477.52 273.155 5.02512 5.0254 -1.40726 -2.06356 1.43461e+06 
203 -0.02975 8.83421e-05 1477.52 273.159 5.0252 5.02565 -1.53859 -2.2476 1.43508e+06 
204 -0.02965 8.83414e-05 1477.52 273.161 5.02519 5.0257 -1.61027 -2.36024 1.4354e+06 
205 -0.02955 8.83416e-05 1477.52 273.16 5.02518 5.02573 -1.60179 -2.37626 1.43554e+06 
206 -0.02945 8.83423e-05 1477.52 273.162 5.02526 5.02584 -1.61842 -2.44929 1.43566e+06 
207 -0.02935 8.83425e-05 1477.52 273.161 5.02526 5.02582 -1.62958 -2.47161 1.43578e+06 
208 -0.02925 8.8342e-05 1477.52 273.165 5.02529 5.02587 -1.69887 -2.57942 1.43609e+06 
209 -0.02915 8.83421e-05 1477.52 273.163 5.02527 5.02599 -1.75681 -2.65284 1.43626e+06 
210 -0.02905 8.8343e-05 1477.52 273.164 5.02533 5.02602 -1.68677 -2.60125 1.43626e+06 
211 -0.02895 8.83416e-05 1477.52 273.164 5.02527 5.02598 -1.80413 -2.7492 1.43661e+06 
212 -0.02885 8.83426e-05 1477.52 273.169 5.0254 5.02605 -1.93929 -2.94865 1.4371e+06 
213 -0.02875 8.83422e-05 1477.52 273.169 5.02539 5.02607 -2.00196 -3.00174 1.43749e+06 
214 -0.02865 8.83419e-05 1477.52 273.172 5.02542 5.02615 -2.09337 -3.11382 1.43783e+06 
215 -0.02855 8.83429e-05 1477.51 273.173 5.0255 5.02625 -2.17781 -3.28631 1.43822e+06 
216 -0.02845 8.8342e-05 1477.51 273.174 5.02546 5.02627 -2.19575 -3.31128 1.4384e+06 
217 -0.02835 8.83424e-05 1477.52 273.175 5.0255 5.02625 -2.17601 -3.29724 1.43841e+06 
218 -0.02825 8.83419e-05 1477.51 273.174 5.02546 5.0262 -2.19922 -3.35615 1.43869e+06 
219 -0.02815 8.83424e-05 1477.51 273.177 5.02554 5.02629 -2.34108 -3.5258 1.43922e+06 
220 -0.02805 8.8342e-05 1477.51 273.179 5.02555 5.02627 -2.33902 -3.54806 1.43927e+06 
221 -0.02795 8.83426e-05 1477.51 273.181 5.02562 5.02634 -2.41176 -3.61165 1.43962e+06 
222 -0.02785 8.83423e-05 1477.51 273.183 5.02564 5.02647 -2.55228 -3.77268 1.44015e+06 
223 -0.02775 8.83429e-05 1477.51 273.188 5.02578 5.02662 -2.62907 -3.96599 1.4406e+06 
224 -0.02765 8.83424e-05 1477.51 273.188 5.02574 5.02666 -2.75374 -4.16281 1.44106e+06 
234 -0.02665 8.83425e-05 1477.5 273.219 5.02633 5.02772 -4.04408 -6.00141 1.4468e+06 
226 -0.02745 8.83416e-05 1477.51 273.191 5.02575 5.02668 -2.85764 -4.36182 1.44166e+06 
227 -0.02735 8.8343e-05 1477.51 273.194 5.02589 5.02689 -2.94606 -4.38277 1.44211e+06 
228 -0.02725 8.83424e-05 1477.51 273.195 5.02588 5.02696 -3.02819 -4.57656 1.44262e+06 
229 -0.02715 8.83428e-05 1477.51 273.201 5.02601 5.0271 -3.36232 -5.00785 1.44373e+06 
230 -0.02705 8.83423e-05 1477.51 273.207 5.02608 5.02725 -3.49567 -5.16042 1.44427e+06 
231 -0.02695 8.8343e-05 1477.51 273.209 5.02617 5.02741 -3.5948 -5.32354 1.44481e+06 
232 -0.02685 8.83432e-05 1477.51 273.215 5.02629 5.02752 -3.86557 -5.66578 1.44579e+06 
233 -0.02675 8.83435e-05 1477.5 273.222 5.02644 5.02784 -4.02758 -5.9203 1.44662e+06 
235 -0.02655 8.83433e-05 1477.51 273.225 5.02648 5.02797 -4.22649 -6.2426 1.44767e+06 
236 -0.02645 8.83438e-05 1477.5 273.226 5.02652 5.02807 -4.2526 -6.3378 1.44794e+06 
237 -0.02635 8.83427e-05 1477.5 273.232 5.02658 5.02812 -4.47689 -6.64449 1.44882e+06 
238 -0.02625 8.83439e-05 1477.5 273.232 5.02664 5.02817 -4.5426 -6.76308 1.44926e+06 
239 -0.02615 8.83431e-05 1477.5 273.237 5.0267 5.0282 -4.72654 -6.96883 1.44994e+06 
240 -0.02605 8.83438e-05 1477.5 273.238 5.02675 5.02829 -4.74895 -7.0793 1.45033e+06 
241 -0.02595 8.83426e-05 1477.5 273.236 5.02664 5.02827 -4.79909 -7.20835 1.45065e+06 
242 -0.02585 8.83437e-05 1477.5 273.244 5.02685 5.02855 -5.02487 -7.5729 1.45174e+06 
243 -0.02575 8.8343e-05 1477.5 273.249 5.02691 5.02872 -5.22329 -7.8451 1.45253e+06 
244 -0.02565 8.83439e-05 1477.5 273.252 5.02702 5.02893 -5.40934 -8.15845 1.45351e+06 
245 -0.02555 8.83433e-05 1477.5 273.254 5.02702 5.02894 -5.45234 -8.28205 1.45392e+06 
246 -0.02545 8.83434e-05 1477.49 273.259 5.02711 5.02905 -5.6603 -8.54294 1.45478e+06 
247 -0.02535 8.83439e-05 1477.49 273.265 5.02725 5.02931 -5.82326 -8.82694 1.45556e+06 
248 -0.02525 8.83435e-05 1477.49 273.27 5.02731 5.02936 -6.1492 -9.25223 1.45687e+06 
249 -0.02515 8.8344e-05 1477.49 273.278 5.0275 5.0296 -6.38595 -9.52991 1.45801e+06 
250 -0.02505 8.83443e-05 1477.49 273.278 5.0275 5.02968 -6.4766 -9.67734 1.45838e+06 
267 -0.02335 8.83462e-05 1477.46 273.424 5.0303 5.03417 -12.2397 -18.1196 1.48413e+06 
257 -0.02435 8.8345e-05 1477.48 273.328 5.02848 5.0314 -8.38801 -12.5322 1.46698e+06 
258 -0.02425 8.83447e-05 1477.47 273.336 5.0286 5.03156 -8.71007 -13.0052 1.46845e+06 
259 -0.02415 8.83447e-05 1477.47 273.34 5.02868 5.03166 -8.97087 -13.3896 1.46971e+06 
260 -0.02405 8.83453e-05 1477.47 273.349 5.02887 5.03195 -9.17886 -13.7215 1.47079e+06 
261 -0.02395 8.83445e-05 1477.47 273.359 5.02901 5.03213 -9.6827 -14.4195 1.47276e+06 
262 -0.02385 8.83454e-05 1477.47 273.372 5.02929 5.03259 -10.0891 -15.0075 1.47456e+06 
263 -0.02375 8.83458e-05 1477.46 273.381 5.0295 5.03288 -10.525 -15.5496 1.47645e+06 
264 -0.02365 8.83455e-05 1477.46 273.391 5.02966 5.03318 -10.9413 -16.2393 1.47829e+06 
265 -0.02355 8.83455e-05 1477.46 273.399 5.02981 5.03343 -11.3686 -16.808 1.4799e+06 
266 -0.02345 8.83461e-05 1477.46 273.415 5.03014 5.03381 -11.7617 -17.4071 1.48203e+06 
268 -0.02325 8.83454e-05 1477.45 273.439 5.03054 5.03465 -12.7943 -18.9653 1.48647e+06 
269 -0.02315 8.8346e-05 1477.45 273.447 5.03072 5.03492 -13.1864 -19.5306 1.48836e+06 
270 -0.02305 8.83475e-05 1477.44 273.466 5.03116 5.03562 -13.7784 -20.3517 1.49092e+06 
271 -0.02295 8.83461e-05 1477.44 273.472 5.03119 5.03578 -14.1758 -20.9446 1.49297e+06 
272 -0.02285 8.83472e-05 1477.44 273.49 5.03158 5.03636 -14.6951 -21.661 1.4952e+06 
273 -0.02275 8.83466e-05 1477.43 273.498 5.03169 5.03663 -15.1524 -22.3884 1.4975e+06 
274 -0.02265 8.8347e-05 1477.43 273.514 5.03201 5.03717 -15.7654 -23.3055 1.50016e+06 
275 -0.02255 8.83479e-05 1477.43 273.535 5.03244 5.03781 -16.5583 -24.3773 1.50367e+06 
251 -0.02495 8.83443e-05 1477.49 273.286 5.02766 5.02986 -6.61643 -9.90342 1.45951e+06 
252 -0.02485 8.83441e-05 1477.49 273.291 5.02774 5.03018 -7.00226 -10.441 1.46075e+06 
253 -0.02475 8.83443e-05 1477.48 273.297 5.02786 5.03031 -7.20672 -10.8095 1.46178e+06 
254 -0.02465 8.8345e-05 1477.48 273.304 5.02803 5.03064 -7.44221 -11.1405 1.46292e+06 
255 -0.02455 8.83447e-05 1477.48 273.314 5.02819 5.03098 -7.84582 -11.7268 1.4646e+06 
256 -0.02445 8.83442e-05 1477.48 273.32 5.02827 5.0311 -8.09714 -12.1476 1.46577e+06 
300 -0.02005 8.83568e-05 1477.28 274.127 5.04383 5.05733 -40.1093 -59.3123 1.61025e+06 
289 -0.02115 8.83511e-05 1477.36 273.793 5.03737 5.04627 -26.7863 -39.6955 1.55056e+06 
290 -0.02105 8.83517e-05 1477.36 273.811 5.03774 5.0469 -27.6803 -41.0364 1.5546e+06 
291 -0.02095 8.83518e-05 1477.35 273.839 5.03826 5.04775 -28.715 -42.5501 1.55919e+06 
292 -0.02085 8.83526e-05 1477.35 273.864 5.03877 5.04859 -29.6734 -43.9996 1.56375e+06 
293 -0.02075 8.83526e-05 1477.34 273.891 5.03926 5.04945 -30.8148 -45.6743 1.56882e+06 
294 -0.02065 8.83527e-05 1477.33 273.926 5.03992 5.0506 -32.1641 -47.56 1.57464e+06 
295 -0.02055 8.83536e-05 1477.32 273.954 5.04048 5.05154 -33.381 -49.2614 1.58004e+06 
296 -0.02045 8.83542e-05 1477.31 273.988 5.04113 5.05272 -34.5925 -51.0554 1.58551e+06 
297 -0.02035 8.83543e-05 1477.31 274.012 5.04158 5.05349 -35.6697 -52.8517 1.59063e+06 
298 -0.02025 8.83553e-05 1477.3 274.052 5.04238 5.05482 -37.1854 -54.9919 1.59726e+06 
299 -0.02015 8.83556e-05 1477.28 274.084 5.04298 5.05594 -38.608 -57.0671 1.60337e+06 
276 -0.02245 8.83476e-05 1477.42 273.547 5.03264 5.03817 -17.0473 -25.1243 1.50596e+06 
277 -0.02235 8.8348e-05 1477.42 273.555 5.03282 5.03851 -17.4924 -25.8962 1.50842e+06 
278 -0.02225 8.83484e-05 1477.42 273.575 5.03321 5.03905 -18.1054 -26.7985 1.5111e+06 
279 -0.02215 8.8348e-05 1477.41 273.586 5.03339 5.0396 -18.7532 -27.849 1.51406e+06 
280 -0.02205 8.8349e-05 1477.41 273.608 5.03385 5.04026 -19.4639 -28.7813 1.51729e+06 
281 -0.02195 8.83484e-05 1477.4 273.619 5.03401 5.04056 -20.0033 -29.7252 1.51975e+06 
282 -0.02185 8.8349e-05 1477.4 273.638 5.03441 5.04117 -20.6296 -30.6017 1.52284e+06 
283 -0.02175 8.83487e-05 1477.4 273.651 5.03462 5.04152 -21.2956 -31.585 1.52585e+06 
284 -0.02165 8.835e-05 1477.39 273.676 5.03516 5.04248 -22.2011 -32.9212 1.52997e+06 
285 -0.02155 8.8349e-05 1477.39 273.694 5.03543 5.04298 -23.0108 -34.1635 1.53348e+06 
286 -0.02145 8.83503e-05 1477.38 273.717 5.03593 5.04381 -23.8738 -35.4071 1.53737e+06 
287 -0.02135 8.83508e-05 1477.37 273.741 5.0364 5.04455 -24.8284 -36.7897 1.54173e+06 
288 -0.02125 8.83502e-05 1477.37 273.766 5.03682 5.04527 -25.8108 -38.1418 1.54599e+06 
301 -0.01995 8.83563e-05 1477.27 274.162 5.04445 5.05833 -41.5611 -61.4541 1.6168e+06 
321 -0.01795 8.8374e-05 1476.97 275.317 5.06673 5.09729 -87.5442 -129.777 1.82342e+06 
322 -0.01785 8.83752e-05 1476.95 275.393 5.06819 5.09983 -90.67 -134.521 1.83747e+06 
323 -0.01775 8.83769e-05 1476.93 275.484 5.06997 5.10292 -94.2438 -139.86 1.8536e+06 
324 -0.01765 8.83775e-05 1476.91 275.573 5.07164 5.10583 -97.7761 -145.059 1.86948e+06 
325 -0.01755 8.83794e-05 1476.89 275.665 5.07343 5.10893 -101.366 -150.491 1.88588e+06 
302 -0.01985 8.83571e-05 1477.26 274.207 5.04533 5.05981 -43.4473 -64.0493 1.62476e+06 
303 -0.01975 8.83579e-05 1477.25 274.25 5.04617 5.06124 -45.0513 -66.5015 1.63208e+06 
304 -0.01965 8.83582e-05 1477.24 274.286 5.04685 5.06253 -46.584 -68.8227 1.63931e+06 
305 -0.01955 8.83598e-05 1477.22 274.339 5.04792 5.06449 -48.6042 -71.8825 1.64787e+06 
306 -0.01945 8.83601e-05 1477.21 274.387 5.04882 5.06606 -50.5656 -74.7442 1.65671e+06 
307 -0.01935 8.83605e-05 1477.2 274.421 5.04947 5.06728 -52.0132 -76.9718 1.66372e+06 
308 -0.01925 8.83612e-05 1477.19 274.481 5.0506 5.06898 -54.2564 -79.9902 1.67326e+06 
309 -0.01915 8.83625e-05 1477.18 274.525 5.0515 5.07067 -56.0425 -83.0131 1.68188e+06 
310 -0.01905 8.83632e-05 1477.17 274.567 5.0523 5.0722 -57.7878 -85.725 1.69015e+06 
311 -0.01895 8.83638e-05 1477.15 274.618 5.05327 5.07389 -59.7246 -88.7403 1.69913e+06 
312 -0.01885 8.83646e-05 1477.14 274.678 5.05442 5.07587 -62.1079 -92.1805 1.70966e+06 
313 -0.01875 8.83653e-05 1477.12 274.755 5.05588 5.07831 -65.2377 -96.3565 1.72261e+06 
314 -0.01865 8.8367e-05 1477.1 274.822 5.05722 5.08067 -67.9027 -100.407 1.73464e+06 
315 -0.01855 8.83676e-05 1477.08 274.883 5.05837 5.0828 -70.2744 -104.008 1.7455e+06 
316 -0.01845 8.83687e-05 1477.07 274.946 5.05959 5.08496 -72.8499 -107.873 1.75702e+06 
317 -0.01835 8.83696e-05 1477.05 275.019 5.06099 5.08728 -75.7228 -112.033 1.76967e+06 
318 -0.01825 8.83711e-05 1477.03 275.087 5.06234 5.08976 -78.4501 -116.309 1.7822e+06 
319 -0.01815 8.83713e-05 1477.01 275.161 5.06369 5.09217 -81.3475 -120.634 1.79539e+06 
320 -0.01805 8.83727e-05 1476.99 275.24 5.06523 5.09476 -84.6002 -125.405 1.80971e+06 
334 -0.01665 8.83948e-05 1476.61 276.727 5.09386 5.14469 -143.555 -213.141 2.07285e+06 
326 -0.01745 8.83803e-05 1476.86 275.76 5.07524 5.11212 -105.261 -156.305 1.90313e+06 
327 -0.01735 8.83824e-05 1476.83 275.862 5.07724 5.11574 -109.167 -162.385 1.92066e+06 
328 -0.01725 8.83834e-05 1476.81 275.966 5.07922 5.11919 -113.481 -168.677 1.9396e+06 
329 -0.01715 8.83863e-05 1476.78 276.086 5.08157 5.12309 -118.127 -175.394 1.96012e+06 
330 -0.01705 8.83871e-05 1476.74 276.222 5.08413 5.12775 -123.559 -183.272 1.98315e+06 
331 -0.01695 8.83901e-05 1476.71 276.331 5.08631 5.13141 -127.815 -189.668 2.00282e+06 
332 -0.01685 8.83903e-05 1476.69 276.448 5.08847 5.13517 -132.528 -196.632 2.02422e+06 
333 -0.01675 8.83933e-05 1476.65 276.584 5.09115 5.1398 -137.952 -204.619 2.04792e+06 
335 -0.01655 8.83978e-05 1476.58 276.873 5.09674 5.14962 -149.487 -221.952 2.0991e+06 
336 -0.01645 8.83987e-05 1476.55 276.995 5.09904 5.15361 -154.307 -229.211 2.12161e+06 
337 -0.01635 8.84015e-05 1476.5 277.155 5.10213 5.15876 -160.668 -238.174 2.14911e+06 
338 -0.01625 8.84038e-05 1476.46 277.319 5.10528 5.16443 -167.101 -247.981 2.17788e+06 