ITEM: TIMESTEP
20000
ITEM: NUMBER OF CELLS
800
ITEM: BOX BOUNDS os pp pp
-0.05 0.03
-0.001 0.001
-0.001 0.001
ITEM: CELLS id f_1[1] f_1[2] f_1[3] f_1[4] f_1[5] f_1[6] f_1[7] f_1[8] f_1[9] 
1 -0.04995 8.83419e-05 1477.53 273.101 5.02412 5.02301 -0.111425 -0.0790497 1.42653e+06 
2 -0.04985 8.83412e-05 1477.53 273.102 5.0241 5.0231 -0.145209 -0.142602 1.42666e+06 
3 -0.04975 8.83412e-05 1477.53 273.102 5.02411 5.02312 -0.165581 -0.220176 1.42678e+06 
4 -0.04965 8.83412e-05 1477.53 273.104 5.02414 5.0233 -0.210982 -0.297449 1.42692e+06 
5 -0.04955 8.83418e-05 1477.53 273.104 5.02417 5.02334 -0.212605 -0.330234 1.42699e+06 
6 -0.04945 8.8342e-05 1477.53 273.105 5.02419 5.02345 -0.242474 -0.391653 1.42706e+06 
7 -0.04935 8.83412e-05 1477.53 273.105 5.02415 5.02335 -0.27128 -0.459097 1.4271e+06 
8 -0.04925 8.83413e-05 1477.53 273.104 5.02413 5.0233 -0.280198 -0.470624 1.42711e+06 
9 -0.04915 8.83416e-05 1477.53 273.106 5.02419 5.02339 -0.27239 -0.448403 1.4272e+06 
10 -0.04905 8.83418e-05 1477.53 273.107 5.02422 5.02343 -0.309445 -0.485847 1.42724e+06 
11 -0.04895 8.8342e-05 1477.53 273.104 5.02418 5.02339 -0.306005 -0.528539 1.42726e+06 
12 -0.04885 8.83409e-05 1477.53 273.108 5.02418 5.02356 -0.324283 -0.549471 1.42737e+06 
13 -0.04875 8.83417e-05 1477.53 273.107 5.02421 5.02357 -0.32276 -0.570844 1.42742e+06 
14 -0.04865 8.8342e-05 1477.53 273.108 5.02425 5.02366 -0.33557 -0.612071 1.42749e+06 
15 -0.04855 8.83406e-05 1477.53 273.106 5.02414 5.02359 -0.359322 -0.644019 1.42748e+06 
16 -0.04845 8.83409e-05 1477.53 273.108 5.0242 5.02354 -0.344087 -0.647599 1.4275e+06 
17 -0.04835 8.83418e-05 1477.53 273.107 5.02423 5.02369 -0.369436 -0.708676 1.42754e+06 
18 -0.04825 8.83416e-05 1477.53 273.108 5.02422 5.02361 -0.358588 -0.657208 1.42752e+06 
19 -0.04815 8.83413e-05 1477.53 273.109 5.02422 5.02358 -0.375793 -0.714569 1.42755e+06 
20 -0.04805 8.83411e-05 1477.53 273.108 5.02419 5.0236 -0.371767 -0.676002 1.42759e+06 
21 -0.04795 8.8342e-05 1477.53 273.106 5.02421 5.0236 -0.335198 -0.631873 1.42761e+06 
22 -0.04785 8.83411e-05 1477.53 273.108 5.0242 5.02357 -0.352615 -0.654802 1.42763e+06 
23 -0.04775 8.83421e-05 1477.53 273.109 5.02427 5.02358 -0.35347 -0.621448 1.42763e+06 
24 -0.04765 8.83416e-05 1477.53 273.108 5.02423 5.02361 -0.357254 -0.612731 1.42767e+06 
25 -0.04755 8.83412e-05 1477.53 273.109 5.02423 5.02353 -0.354266 -0.60854 1.42765e+06 
34 -0.04665 8.83418e-05 1477.53 273.11 5.02427 5.02365 -0.422042 -0.650315 1.42784e+06 
33 -0.04675 8.83415e-05 1477.53 273.109 5.02425 5.02357 -0.410903 -0.651737 1.42782e+06 
35 -0.04655 8.83408e-05 1477.53 273.111 5.02423 5.02353 -0.404374 -0.640748 1.42783e+06 
36 -0.04645 8.83424e-05 1477.53 273.109 5.02429 5.0236 -0.412837 -0.632996 1.42784e+06 
37 -0.04635 8.83416e-05 1477.53 273.11 5.02426 5.02355 -0.398855 -0.632368 1.42782e+06 
38 -0.04625 8.83416e-05 1477.53 273.109 5.02425 5.02349 -0.362481 -0.578716 1.4278e+06 
39 -0.04615 8.83422e-05 1477.53 273.107 5.02425 5.02351 -0.384078 -0.593031 1.4278e+06 
40 -0.04605 8.83408e-05 1477.53 273.107 5.02416 5.0234 -0.380319 -0.606036 1.42777e+06 
41 -0.04595 8.83414e-05 1477.53 273.112 5.0243 5.0237 -0.378653 -0.618455 1.4279e+06 
42 -0.04585 8.83417e-05 1477.53 273.108 5.02423 5.02361 -0.392857 -0.648149 1.42788e+06 
43 -0.04575 8.83417e-05 1477.53 273.11 5.02427 5.02363 -0.382556 -0.624683 1.4279e+06 
44 -0.04565 8.83418e-05 1477.53 273.109 5.02425 5.02368 -0.40629 -0.652245 1.42794e+06 
45 -0.04555 8.83411e-05 1477.53 273.109 5.02421 5.02358 -0.407349 -0.613987 1.42791e+06 
46 -0.04545 8.8342e-05 1477.53 273.11 5.02428 5.02364 -0.377327 -0.58507 1.42792e+06 
47 -0.04535 8.83415e-05 1477.53 273.11 5.02427 5.0238 -0.395863 -0.607477 1.42802e+06 
48 -0.04525 8.83414e-05 1477.53 273.11 5.02425 5.0238 -0.399866 -0.65604 1.42805e+06 
49 -0.04515 8.83423e-05 1477.53 273.108 5.02427 5.02381 -0.394748 -0.654959 1.42804e+06 
50 -0.04505 8.8342e-05 1477.53 273.111 5.02431 5.02393 -0.386746 -0.61897 1.42811e+06 
26 -0.04745 8.83418e-05 1477.53 273.107 5.02422 5.02355 -0.359186 -0.58005 1.42765e+06 
27 -0.04735 8.83416e-05 1477.53 273.109 5.02425 5.0235 -0.369548 -0.603352 1.42766e+06 
28 -0.04725 8.8341e-05 1477.53 273.11 5.02423 5.02361 -0.360404 -0.581185 1.42773e+06 
29 -0.04715 8.8342e-05 1477.53 273.108 5.02426 5.02356 -0.374154 -0.574256 1.42771e+06 
30 -0.04705 8.8342e-05 1477.53 273.108 5.02426 5.02359 -0.381385 -0.602533 1.42775e+06 
31 -0.04695 8.83415e-05 1477.53 273.111 5.02428 5.02364 -0.410573 -0.634507 1.42779e+06 
32 -0.04685 8.83415e-05 1477.53 273.109 5.02425 5.02368 -0.420759 -0.672647 1.42783e+06 
67 -0.04335 8.83423e-05 1477.53 273.109 5.02429 5.02381 -0.335176 -0.41498 1.42813e+06 
65 -0.04355 8.83417e-05 1477.52 273.11 5.02427 5.02388 -0.336824 -0.510458 1.42819e+06 
66 -0.04345 8.83414e-05 1477.52 273.11 5.02425 5.02381 -0.34835 -0.474414 1.42817e+06 
68 -0.04325 8.83418e-05 1477.52 273.109 5.02425 5.02372 -0.335132 -0.43579 1.42814e+06 
69 -0.04315 8.83416e-05 1477.53 273.109 5.02425 5.02378 -0.352782 -0.452373 1.42816e+06 
70 -0.04305 8.83413e-05 1477.53 273.108 5.02421 5.02378 -0.336907 -0.459284 1.42819e+06 
71 -0.04295 8.83421e-05 1477.52 273.11 5.02429 5.02376 -0.346994 -0.50016 1.42824e+06 
72 -0.04285 8.8342e-05 1477.52 273.109 5.02427 5.02391 -0.36622 -0.531359 1.42829e+06 
73 -0.04275 8.83425e-05 1477.52 273.109 5.0243 5.02391 -0.361521 -0.521489 1.42829e+06 
74 -0.04265 8.83412e-05 1477.52 273.109 5.02423 5.02375 -0.369264 -0.540566 1.42824e+06 
75 -0.04255 8.83422e-05 1477.53 273.111 5.02431 5.0239 -0.347545 -0.478287 1.42834e+06 
51 -0.04495 8.83422e-05 1477.52 273.11 5.0243 5.02387 -0.415512 -0.64495 1.42811e+06 
52 -0.04485 8.83422e-05 1477.53 273.112 5.02433 5.02397 -0.411379 -0.623624 1.42819e+06 
53 -0.04475 8.83423e-05 1477.53 273.111 5.02432 5.02388 -0.414056 -0.623297 1.42814e+06 
54 -0.04465 8.83419e-05 1477.52 273.111 5.02429 5.02392 -0.395285 -0.597693 1.42816e+06 
55 -0.04455 8.83422e-05 1477.52 273.107 5.02424 5.02389 -0.383845 -0.594346 1.42814e+06 
56 -0.04445 8.83419e-05 1477.53 273.11 5.02429 5.02396 -0.372894 -0.561854 1.42817e+06 
57 -0.04435 8.83419e-05 1477.52 273.108 5.02424 5.02391 -0.380167 -0.61524 1.42815e+06 
58 -0.04425 8.83411e-05 1477.53 273.111 5.02425 5.02395 -0.3464 -0.58119 1.42817e+06 
59 -0.04415 8.83419e-05 1477.52 273.107 5.02424 5.0239 -0.348993 -0.553663 1.42816e+06 
60 -0.04405 8.83431e-05 1477.52 273.109 5.02434 5.024 -0.343342 -0.538658 1.42822e+06 
61 -0.04395 8.83415e-05 1477.52 273.108 5.02423 5.0239 -0.35946 -0.568393 1.42819e+06 
62 -0.04385 8.83417e-05 1477.52 273.108 5.02424 5.02392 -0.346568 -0.549287 1.42817e+06 
63 -0.04375 8.83419e-05 1477.52 273.109 5.02426 5.02387 -0.332735 -0.546393 1.42817e+06 
64 -0.04365 8.83422e-05 1477.52 273.108 5.02426 5.02385 -0.344647 -0.502292 1.42815e+06 
100 -0.04005 8.83426e-05 1477.52 273.106 5.02424 5.02397 -0.229276 -0.426069 1.42836e+06 
97 -0.04035 8.83424e-05 1477.52 273.106 5.02424 5.02409 -0.239971 -0.398954 1.4284e+06 
98 -0.04025 8.83418e-05 1477.52 273.108 5.02423 5.024 -0.245429 -0.419653 1.42838e+06 
99 -0.04015 8.83426e-05 1477.52 273.11 5.02432 5.02416 -0.236388 -0.423326 1.42846e+06 
76 -0.04245 8.83415e-05 1477.52 273.111 5.02428 5.02373 -0.329866 -0.513084 1.42824e+06 
77 -0.04235 8.83425e-05 1477.53 273.106 5.02424 5.02374 -0.316214 -0.471363 1.42818e+06 
78 -0.04225 8.83415e-05 1477.52 273.109 5.02423 5.02375 -0.31126 -0.480247 1.42822e+06 
79 -0.04215 8.83419e-05 1477.53 273.11 5.02429 5.0239 -0.293388 -0.443651 1.42828e+06 
80 -0.04205 8.83418e-05 1477.52 273.108 5.02424 5.02378 -0.283271 -0.449916 1.42821e+06 
81 -0.04195 8.83422e-05 1477.53 273.108 5.02426 5.02379 -0.294732 -0.433424 1.42822e+06 
82 -0.04185 8.83422e-05 1477.53 273.111 5.02432 5.02392 -0.305198 -0.4617 1.42826e+06 
83 -0.04175 8.83418e-05 1477.53 273.111 5.02429 5.02385 -0.298608 -0.46339 1.42826e+06 
84 -0.04165 8.83423e-05 1477.52 273.108 5.02427 5.02388 -0.324399 -0.514051 1.42826e+06 
85 -0.04155 8.8342e-05 1477.52 273.112 5.02432 5.02398 -0.31823 -0.509344 1.42834e+06 
86 -0.04145 8.83427e-05 1477.52 273.11 5.02433 5.02392 -0.309966 -0.517267 1.42831e+06 
87 -0.04135 8.83423e-05 1477.52 273.112 5.02435 5.02408 -0.336444 -0.541462 1.42842e+06 
88 -0.04125 8.83419e-05 1477.52 273.109 5.02426 5.02394 -0.315938 -0.501404 1.42833e+06 
89 -0.04115 8.8342e-05 1477.52 273.11 5.02429 5.024 -0.29494 -0.477613 1.42834e+06 
90 -0.04105 8.83427e-05 1477.52 273.109 5.02431 5.02405 -0.28128 -0.447711 1.42836e+06 
91 -0.04095 8.83418e-05 1477.52 273.109 5.02427 5.02406 -0.276856 -0.460355 1.42837e+06 
92 -0.04085 8.8342e-05 1477.52 273.109 5.02427 5.0241 -0.286402 -0.496819 1.42838e+06 
93 -0.04075 8.83417e-05 1477.52 273.109 5.02425 5.02404 -0.272376 -0.435742 1.42836e+06 
94 -0.04065 8.8342e-05 1477.53 273.109 5.02428 5.02402 -0.262239 -0.385766 1.42836e+06 
95 -0.04055 8.83423e-05 1477.52 273.107 5.02424 5.02401 -0.265902 -0.392093 1.42834e+06 
96 -0.04045 8.83419e-05 1477.52 273.11 5.02428 5.02401 -0.266668 -0.404364 1.42838e+06 
101 -0.03995 8.83421e-05 1477.52 273.109 5.02428 5.02411 -0.201671 -0.383453 1.42844e+06 
102 -0.03985 8.83419e-05 1477.52 273.104 5.02418 5.02388 -0.199617 -0.327347 1.42832e+06 
103 -0.03975 8.83422e-05 1477.52 273.108 5.02427 5.02391 -0.202016 -0.311792 1.42837e+06 
104 -0.03965 8.83426e-05 1477.53 273.108 5.02428 5.02402 -0.190789 -0.285724 1.42842e+06 
105 -0.03955 8.83423e-05 1477.52 273.106 5.02423 5.02389 -0.211851 -0.320693 1.42837e+06 
106 -0.03945 8.83421e-05 1477.52 273.109 5.02427 5.02401 -0.19842 -0.300919 1.42848e+06 
107 -0.03935 8.83419e-05 1477.52 273.107 5.02423 5.02396 -0.212513 -0.311878 1.42843e+06 
108 -0.03925 8.83418e-05 1477.52 273.108 5.02424 5.02394 -0.202849 -0.296084 1.42841e+06 
109 -0.03915 8.83412e-05 1477.52 273.107 5.02418 5.02381 -0.217592 -0.343055 1.42839e+06 
110 -0.03905 8.83425e-05 1477.52 273.108 5.02427 5.02389 -0.182329 -0.296026 1.42841e+06 
111 -0.03895 8.83414e-05 1477.52 273.107 5.02421 5.02384 -0.194173 -0.319581 1.42841e+06 
112 -0.03885 8.83418e-05 1477.53 273.11 5.02427 5.02402 -0.196542 -0.339079 1.42845e+06 
113 -0.03875 8.83424e-05 1477.52 273.107 5.02425 5.02403 -0.201757 -0.322823 1.42848e+06 
114 -0.03865 8.83418e-05 1477.52 273.109 5.02426 5.02411 -0.237878 -0.361914 1.42861e+06 
115 -0.03855 8.83421e-05 1477.52 273.108 5.02426 5.02411 -0.244953 -0.396807 1.42861e+06 
116 -0.03845 8.83429e-05 1477.52 273.111 5.02435 5.02414 -0.251328 -0.42551 1.42867e+06 
117 -0.03835 8.83418e-05 1477.52 273.11 5.02428 5.02407 -0.242788 -0.411262 1.42863e+06 
118 -0.03825 8.83428e-05 1477.52 273.109 5.02432 5.02422 -0.239928 -0.396007 1.4287e+06 
119 -0.03815 8.83419e-05 1477.52 273.109 5.02426 5.024 -0.245471 -0.382073 1.4286e+06 
120 -0.03805 8.8342e-05 1477.52 273.11 5.0243 5.02413 -0.245831 -0.374948 1.42869e+06 
121 -0.03795 8.83424e-05 1477.52 273.112 5.02435 5.02409 -0.267592 -0.394617 1.42869e+06 
122 -0.03785 8.83422e-05 1477.52 273.111 5.02431 5.02423 -0.281755 -0.403894 1.42876e+06 
123 -0.03775 8.83427e-05 1477.52 273.109 5.02431 5.02415 -0.288467 -0.438066 1.42875e+06 
124 -0.03765 8.83425e-05 1477.52 273.114 5.0244 5.02426 -0.311386 -0.464245 1.42883e+06 
125 -0.03755 8.83424e-05 1477.52 273.111 5.02434 5.0242 -0.305078 -0.435498 1.42878e+06 
134 -0.03665 8.83428e-05 1477.52 273.111 5.02434 5.02441 -0.307669 -0.484638 1.42903e+06 
129 -0.03715 8.83427e-05 1477.52 273.112 5.02436 5.02425 -0.319194 -0.475953 1.42886e+06 
130 -0.03705 8.83434e-05 1477.52 273.111 5.02438 5.02447 -0.344746 -0.52594 1.42899e+06 
131 -0.03695 8.83419e-05 1477.52 273.113 5.02434 5.0244 -0.301152 -0.468676 1.42895e+06 
132 -0.03685 8.83422e-05 1477.52 273.111 5.02433 5.02434 -0.325242 -0.510518 1.42897e+06 
133 -0.03675 8.83432e-05 1477.52 273.112 5.02439 5.02441 -0.30424 -0.463828 1.42901e+06 
135 -0.03655 8.83422e-05 1477.52 273.111 5.02433 5.02436 -0.318589 -0.492034 1.42901e+06 
136 -0.03645 8.83432e-05 1477.52 273.11 5.02436 5.0244 -0.329785 -0.474214 1.42906e+06 
137 -0.03635 8.83422e-05 1477.52 273.113 5.02435 5.02435 -0.325195 -0.477975 1.42915e+06 
138 -0.03625 8.83421e-05 1477.52 273.111 5.02431 5.02432 -0.334643 -0.468477 1.42913e+06 
139 -0.03615 8.83429e-05 1477.52 273.113 5.0244 5.02441 -0.303888 -0.424054 1.42914e+06 
140 -0.03605 8.83424e-05 1477.52 273.113 5.02436 5.02437 -0.343237 -0.48225 1.42927e+06 
141 -0.03595 8.83426e-05 1477.52 273.112 5.02435 5.02439 -0.303634 -0.452842 1.42918e+06 
142 -0.03585 8.83425e-05 1477.52 273.114 5.02438 5.02443 -0.330489 -0.482188 1.42929e+06 
143 -0.03575 8.83427e-05 1477.52 273.11 5.02433 5.02437 -0.327256 -0.505231 1.42923e+06 
144 -0.03565 8.83428e-05 1477.52 273.111 5.02435 5.02439 -0.291741 -0.484608 1.42922e+06 
145 -0.03555 8.83423e-05 1477.52 273.112 5.02433 5.02439 -0.301013 -0.5006 1.42935e+06 
146 -0.03545 8.83423e-05 1477.52 273.11 5.02431 5.0243 -0.31346 -0.568941 1.42932e+06 
147 -0.03535 8.83428e-05 1477.52 273.112 5.02436 5.02434 -0.305787 -0.499272 1.42931e+06 
148 -0.03525 8.83419e-05 1477.52 273.111 5.02431 5.02431 -0.322585 -0.541112 1.42939e+06 
149 -0.03515 8.83424e-05 1477.52 273.111 5.02433 5.02436 -0.34566 -0.588859 1.42943e+06 
150 -0.03505 8.83423e-05 1477.52 273.113 5.02437 5.02439 -0.329308 -0.554529 1.42944e+06 
126 -0.03745 8.83429e-05 1477.52 273.112 5.02438 5.02429 -0.290884 -0.457755 1.42883e+06 
127 -0.03735 8.83419e-05 1477.52 273.113 5.02434 5.02427 -0.330151 -0.462271 1.42883e+06 
128 -0.03725 8.83432e-05 1477.52 273.113 5.02442 5.02434 -0.313363 -0.465482 1.4289e+06 
167 -0.03335 8.83423e-05 1477.52 273.116 5.02441 5.02483 -0.471594 -0.841493 1.43023e+06 
161 -0.03395 8.83425e-05 1477.52 273.115 5.0244 5.02482 -0.487243 -0.806562 1.43014e+06 
162 -0.03385 8.83423e-05 1477.51 273.117 5.02444 5.02485 -0.500018 -0.872603 1.43022e+06 
163 -0.03375 8.83422e-05 1477.52 273.115 5.02439 5.02486 -0.487136 -0.868163 1.43024e+06 
164 -0.03365 8.83422e-05 1477.51 273.116 5.02442 5.02485 -0.483707 -0.847273 1.43021e+06 
165 -0.03355 8.83426e-05 1477.52 273.116 5.02443 5.02487 -0.473577 -0.828529 1.43026e+06 
166 -0.03345 8.83417e-05 1477.51 273.115 5.02437 5.02472 -0.475293 -0.86119 1.43021e+06 
168 -0.03325 8.83423e-05 1477.52 273.116 5.02442 5.02486 -0.493397 -0.840556 1.43032e+06 
169 -0.03315 8.83422e-05 1477.51 273.117 5.02443 5.02475 -0.527673 -0.835923 1.43041e+06 
170 -0.03305 8.83417e-05 1477.52 273.118 5.02442 5.02482 -0.507884 -0.800429 1.43045e+06 
171 -0.03295 8.83425e-05 1477.51 273.116 5.02443 5.02482 -0.542773 -0.875546 1.43053e+06 
172 -0.03285 8.8342e-05 1477.51 273.118 5.02444 5.02494 -0.50387 -0.82314 1.43053e+06 
173 -0.03275 8.83417e-05 1477.51 273.118 5.02442 5.02494 -0.545653 -0.891097 1.43059e+06 
174 -0.03265 8.83423e-05 1477.51 273.116 5.02441 5.02492 -0.531049 -0.882023 1.43065e+06 
175 -0.03255 8.83424e-05 1477.51 273.12 5.0245 5.02501 -0.558027 -0.940429 1.43075e+06 
151 -0.03495 8.8342e-05 1477.52 273.112 5.02433 5.02442 -0.357953 -0.564187 1.42953e+06 
152 -0.03485 8.83432e-05 1477.52 273.112 5.0244 5.02449 -0.375133 -0.601268 1.4296e+06 
153 -0.03475 8.83426e-05 1477.51 273.114 5.0244 5.02454 -0.362162 -0.574146 1.42962e+06 
154 -0.03465 8.83426e-05 1477.52 273.112 5.02436 5.0246 -0.374097 -0.600007 1.42966e+06 
155 -0.03455 8.83423e-05 1477.52 273.111 5.02433 5.02458 -0.368445 -0.621822 1.42969e+06 
156 -0.03445 8.83423e-05 1477.52 273.114 5.02438 5.02465 -0.383505 -0.657254 1.42983e+06 
157 -0.03435 8.83425e-05 1477.52 273.114 5.02439 5.02467 -0.430329 -0.702089 1.4299e+06 
158 -0.03425 8.83424e-05 1477.52 273.115 5.0244 5.02472 -0.440627 -0.705585 1.42999e+06 
159 -0.03415 8.8343e-05 1477.52 273.114 5.02442 5.02473 -0.48545 -0.793888 1.43006e+06 
160 -0.03405 8.8342e-05 1477.51 273.116 5.0244 5.02474 -0.431163 -0.740671 1.42998e+06 
200 -0.03005 8.83433e-05 1477.51 273.133 5.0248 5.02541 -1.20336 -1.78436 1.43379e+06 
193 -0.03075 8.83426e-05 1477.51 273.128 5.02465 5.02519 -0.996716 -1.46042 1.43276e+06 
194 -0.03065 8.83425e-05 1477.51 273.127 5.02464 5.02521 -0.919239 -1.36463 1.43261e+06 
195 -0.03055 8.83426e-05 1477.51 273.13 5.02469 5.02521 -1.02476 -1.51409 1.43289e+06 
196 -0.03045 8.83423e-05 1477.51 273.131 5.02469 5.02522 -1.07429 -1.57264 1.4331e+06 
197 -0.03035 8.83429e-05 1477.51 273.132 5.02474 5.02524 -1.12566 -1.63265 1.43333e+06 
198 -0.03025 8.83425e-05 1477.51 273.132 5.02472 5.02517 -1.14055 -1.68123 1.43345e+06 
199 -0.03015 8.83426e-05 1477.51 273.134 5.02477 5.02536 -1.21162 -1.75311 1.43371e+06 
176 -0.03245 8.83421e-05 1477.51 273.122 5.02451 5.02502 -0.61798 -1.00367 1.43099e+06 
177 -0.03235 8.83425e-05 1477.51 273.121 5.02452 5.02505 -0.609575 -0.983154 1.43093e+06 
178 -0.03225 8.83426e-05 1477.51 273.119 5.0245 5.02501 -0.623667 -0.948867 1.43104e+06 
179 -0.03215 8.83424e-05 1477.51 273.122 5.02453 5.02502 -0.645449 -0.973965 1.43106e+06 
180 -0.03205 8.83427e-05 1477.51 273.122 5.02454 5.02499 -0.671536 -0.989952 1.43119e+06 
181 -0.03195 8.83415e-05 1477.51 273.121 5.02447 5.02492 -0.68954 -0.993551 1.43125e+06 
182 -0.03185 8.83423e-05 1477.51 273.125 5.02459 5.02509 -0.716793 -1.01601 1.43149e+06 
183 -0.03175 8.83427e-05 1477.51 273.122 5.02455 5.025 -0.775392 -1.10356 1.43155e+06 
184 -0.03165 8.83421e-05 1477.51 273.125 5.02456 5.02505 -0.786692 -1.12869 1.43166e+06 
185 -0.03155 8.83428e-05 1477.51 273.126 5.02463 5.02521 -0.830631 -1.20516 1.43182e+06 
186 -0.03145 8.83423e-05 1477.51 273.127 5.02462 5.02523 -0.897955 -1.30297 1.43206e+06 
187 -0.03135 8.83425e-05 1477.51 273.126 5.02462 5.02525 -0.843619 -1.24084 1.43201e+06 
188 -0.03125 8.83426e-05 1477.51 273.124 5.02458 5.0252 -0.880192 -1.33712 1.43208e+06 
189 -0.03115 8.83424e-05 1477.51 273.129 5.02465 5.02522 -0.881562 -1.33126 1.43215e+06 
190 -0.03105 8.83427e-05 1477.51 273.127 5.02464 5.02522 -0.889411 -1.35518 1.43228e+06 
191 -0.03095 8.83429e-05 1477.51 273.126 5.02463 5.02518 -0.915335 -1.37372 1.43243e+06 
192 -0.03085 8.83425e-05 1477.51 273.127 5.02462 5.02507 -0.904086 -1.33785 1.43245e+06 
201 -0.02995 8.83428e-05 1477.51 273.135 5.0248 5.02541 -1.2757 -1.89142 1.43404e+06 
225 -0.02755 8.8343e-05 1477.51 273.17 5.02545 5.02614 -2.66068 -3.87017 1.44049e+06 
202 -0.02985 8.83429e-05 1477.51 273.137 5.02483 5.02547 -1.29982 -1.92702 1.43413e+06 
203 -0.02975 8.83433e-05 1477.51 273.135 5.02483 5.02543 -1.29937 -1.90468 1.43426e+06 
204 -0.02965 8.83426e-05 1477.51 273.137 5.02482 5.0253 -1.34525 -1.93157 1.43429e+06 
205 -0.02955 8.8343e-05 1477.51 273.137 5.02484 5.02538 -1.34957 -1.95557 1.43449e+06 
206 -0.02945 8.83428e-05 1477.51 273.137 5.02483 5.02532 -1.38411 -1.96692 1.43458e+06 
207 -0.02935 8.83422e-05 1477.51 273.139 5.02484 5.02528 -1.41958 -2.00795 1.43484e+06 
208 -0.02925 8.83431e-05 1477.51 273.141 5.02492 5.02544 -1.53875 -2.15235 1.43528e+06 
209 -0.02915 8.83431e-05 1477.51 273.143 5.02496 5.02539 -1.52459 -2.19848 1.43538e+06 
210 -0.02905 8.83426e-05 1477.51 273.142 5.02492 5.02544 -1.53375 -2.18812 1.43552e+06 
211 -0.02895 8.83432e-05 1477.51 273.142 5.02494 5.02541 -1.56555 -2.22258 1.43563e+06 
212 -0.02885 8.83434e-05 1477.51 273.148 5.02507 5.02559 -1.68242 -2.37994 1.43617e+06 
213 -0.02875 8.83423e-05 1477.51 273.146 5.02496 5.02548 -1.7378 -2.47479 1.43636e+06 
214 -0.02865 8.8343e-05 1477.51 273.149 5.02506 5.02561 -1.7941 -2.55619 1.43677e+06 
215 -0.02855 8.83428e-05 1477.51 273.151 5.0251 5.02566 -1.82885 -2.59764 1.43697e+06 
216 -0.02845 8.83427e-05 1477.51 273.149 5.02505 5.02556 -1.86086 -2.62966 1.43708e+06 
217 -0.02835 8.83438e-05 1477.51 273.151 5.02514 5.02569 -1.93419 -2.80228 1.43737e+06 
218 -0.02825 8.83421e-05 1477.51 273.156 5.02514 5.02574 -2.08964 -3.01225 1.43792e+06 
219 -0.02815 8.83435e-05 1477.51 273.157 5.02523 5.0259 -2.14853 -3.12515 1.4383e+06 
220 -0.02805 8.8343e-05 1477.5 273.159 5.02525 5.02589 -2.24815 -3.25159 1.43849e+06 
221 -0.02795 8.8343e-05 1477.51 273.164 5.02534 5.02607 -2.30517 -3.33933 1.4391e+06 
222 -0.02785 8.83435e-05 1477.51 273.161 5.02531 5.02597 -2.32718 -3.38567 1.43903e+06 
223 -0.02775 8.83436e-05 1477.51 273.165 5.0254 5.02606 -2.46143 -3.57023 1.43957e+06 
224 -0.02765 8.83425e-05 1477.5 273.167 5.02537 5.02609 -2.58049 -3.71776 1.44016e+06 
234 -0.02665 8.83432e-05 1477.5 273.202 5.02606 5.02711 -3.88379 -5.62554 1.44568e+06 
226 -0.02745 8.83434e-05 1477.51 273.172 5.02551 5.02619 -2.71581 -4.00017 1.4408e+06 
227 -0.02735 8.83433e-05 1477.5 273.176 5.02557 5.0263 -2.89386 -4.1623 1.44132e+06 
228 -0.02725 8.83431e-05 1477.5 273.179 5.02563 5.02637 -3.01073 -4.30497 1.44194e+06 
229 -0.02715 8.8343e-05 1477.5 273.183 5.02569 5.02657 -3.16162 -4.56417 1.44251e+06 
230 -0.02705 8.83431e-05 1477.5 273.187 5.02577 5.02669 -3.25754 -4.7248 1.44307e+06 
231 -0.02695 8.83426e-05 1477.5 273.187 5.02575 5.02656 -3.3197 -4.81587 1.44334e+06 
232 -0.02685 8.83435e-05 1477.5 273.194 5.02591 5.02679 -3.46807 -5.00266 1.44401e+06 
233 -0.02675 8.83426e-05 1477.5 273.199 5.02596 5.02691 -3.78267 -5.46417 1.44515e+06 
235 -0.02655 8.83428e-05 1477.5 273.206 5.0261 5.02719 -3.99536 -5.79181 1.44628e+06 
236 -0.02645 8.83434e-05 1477.49 273.208 5.02618 5.02735 -4.17568 -6.0255 1.44701e+06 
237 -0.02635 8.83436e-05 1477.49 273.222 5.02644 5.02776 -4.53951 -6.47211 1.44842e+06 
238 -0.02625 8.83433e-05 1477.49 273.222 5.02642 5.02776 -4.60302 -6.67784 1.44884e+06 
239 -0.02615 8.83438e-05 1477.49 273.222 5.02646 5.02786 -4.67153 -6.80918 1.44926e+06 
240 -0.02605 8.83431e-05 1477.49 273.225 5.02647 5.02787 -4.76007 -6.94596 1.44983e+06 
241 -0.02595 8.8344e-05 1477.49 273.229 5.02659 5.02798 -4.90831 -7.08514 1.45056e+06 
242 -0.02585 8.83431e-05 1477.49 273.231 5.02658 5.02794 -5.07888 -7.33453 1.45128e+06 
243 -0.02575 8.83441e-05 1477.49 273.237 5.02675 5.02823 -5.15554 -7.4985 1.45183e+06 
244 -0.02565 8.83434e-05 1477.49 273.24 5.02676 5.02829 -5.39389 -7.83847 1.45282e+06 
245 -0.02555 8.83442e-05 1477.49 273.249 5.02698 5.02864 -5.64201 -8.14862 1.45383e+06 
246 -0.02545 8.83439e-05 1477.49 273.256 5.02709 5.02884 -5.90852 -8.57251 1.45511e+06 
247 -0.02535 8.83435e-05 1477.48 273.259 5.02712 5.02891 -6.14424 -8.8534 1.45596e+06 
248 -0.02525 8.83447e-05 1477.48 273.267 5.02733 5.0293 -6.39611 -9.17952 1.45721e+06 
249 -0.02515 8.83444e-05 1477.48 273.275 5.02747 5.02953 -6.6649 -9.61475 1.45831e+06 
250 -0.02505 8.83443e-05 1477.48 273.281 5.02757 5.02977 -6.93003 -10.0359 1.45958e+06 
267 -0.02335 8.83468e-05 1477.44 273.418 5.03022 5.03433 -12.4613 -18.3336 1.48496e+06 
257 -0.02435 8.83456e-05 1477.47 273.326 5.02847 5.03135 -8.72045 -12.7999 1.468e+06 
258 -0.02425 8.83447e-05 1477.47 273.331 5.0285 5.0316 -8.97198 -13.22 1.46927e+06 
259 -0.02415 8.83458e-05 1477.46 273.344 5.02881 5.03191 -9.45389 -13.7444 1.47114e+06 
260 -0.02405 8.83452e-05 1477.46 273.356 5.02899 5.03229 -9.93807 -14.493 1.4733e+06 
261 -0.02395 8.83456e-05 1477.46 273.362 5.02913 5.0325 -10.1868 -14.861 1.4745e+06 
262 -0.02385 8.83457e-05 1477.46 273.373 5.02933 5.03285 -10.5955 -15.4691 1.47634e+06 
263 -0.02375 8.83458e-05 1477.45 273.382 5.0295 5.03308 -10.9786 -16.0547 1.47806e+06 
264 -0.02365 8.83464e-05 1477.45 273.395 5.02978 5.0336 -11.3944 -16.7063 1.47993e+06 
265 -0.02355 8.83459e-05 1477.45 273.402 5.02988 5.03373 -11.7611 -17.2159 1.48169e+06 
266 -0.02345 8.83463e-05 1477.44 273.41 5.03005 5.03402 -12.0747 -17.6998 1.48318e+06 
268 -0.02325 8.83463e-05 1477.44 273.434 5.03049 5.03481 -12.9136 -19.0728 1.487e+06 
269 -0.02315 8.83463e-05 1477.43 273.444 5.03069 5.03515 -13.4748 -19.8946 1.48932e+06 
270 -0.02305 8.83472e-05 1477.43 273.46 5.03102 5.03569 -13.962 -20.5785 1.49163e+06 
271 -0.02295 8.83471e-05 1477.43 273.466 5.03113 5.03607 -14.3551 -21.2625 1.49352e+06 
272 -0.02285 8.83469e-05 1477.42 273.478 5.03135 5.03641 -14.8307 -21.9042 1.49579e+06 
273 -0.02275 8.83479e-05 1477.42 273.497 5.03174 5.03697 -15.4476 -22.7958 1.49852e+06 
274 -0.02265 8.83472e-05 1477.42 273.509 5.03192 5.03725 -16.0198 -23.6601 1.50112e+06 
275 -0.02255 8.83487e-05 1477.41 273.523 5.03226 5.03792 -16.5155 -24.4839 1.50347e+06 
251 -0.02495 8.83444e-05 1477.48 273.286 5.02767 5.02988 -7.17717 -10.4018 1.46071e+06 
252 -0.02485 8.83439e-05 1477.48 273.292 5.02775 5.03006 -7.29887 -10.6476 1.46139e+06 
253 -0.02475 8.83448e-05 1477.47 273.296 5.02786 5.03022 -7.5943 -11.0678 1.46272e+06 
254 -0.02465 8.83448e-05 1477.47 273.302 5.02797 5.03059 -7.79877 -11.4167 1.46387e+06 
255 -0.02455 8.83437e-05 1477.47 273.31 5.02807 5.03069 -8.07302 -11.8378 1.46513e+06 
256 -0.02445 8.83452e-05 1477.47 273.314 5.02822 5.03101 -8.31054 -12.1913 1.4663e+06 
300 -0.02005 8.8358e-05 1477.25 274.162 5.04456 5.05893 -41.7609 -61.571 1.61616e+06 
289 -0.02115 8.83532e-05 1477.34 273.807 5.03775 5.04731 -27.6772 -40.8193 1.55328e+06 
290 -0.02105 8.83523e-05 1477.34 273.828 5.03809 5.04791 -28.543 -42.1378 1.55734e+06 
291 -0.02095 8.83539e-05 1477.33 273.863 5.03882 5.04916 -29.914 -44.0639 1.5633e+06 
292 -0.02085 8.83537e-05 1477.32 273.892 5.03935 5.05014 -31.0912 -45.9098 1.56857e+06 
293 -0.02075 8.83551e-05 1477.31 273.915 5.03985 5.05095 -31.9282 -47.1924 1.57244e+06 
294 -0.02065 8.83555e-05 1477.31 273.946 5.04044 5.05197 -33.1653 -49.0007 1.57815e+06 
295 -0.02055 8.83557e-05 1477.3 273.977 5.04102 5.05293 -34.3245 -50.6394 1.58343e+06 
296 -0.02045 8.8356e-05 1477.29 274.014 5.04172 5.05422 -35.8813 -52.9858 1.59008e+06 
297 -0.02035 8.83561e-05 1477.28 274.047 5.04233 5.05517 -37.1939 -54.8946 1.59611e+06 
298 -0.02025 8.83574e-05 1477.27 274.082 5.04305 5.05646 -38.5777 -57.0713 1.60229e+06 
299 -0.02015 8.83581e-05 1477.26 274.121 5.0438 5.05769 -39.976 -59.0039 1.6084e+06 
276 -0.02245 8.83479e-05 1477.41 273.54 5.03253 5.03847 -17.1536 -25.4324 1.50639e+06 
277 -0.02235 8.83486e-05 1477.41 273.554 5.03283 5.03897 -17.7826 -26.4342 1.5092e+06 
278 -0.02225 8.83494e-05 1477.4 273.571 5.03318 5.03952 -18.38 -27.2662 1.5118e+06 
279 -0.02215 8.83486e-05 1477.4 273.586 5.03342 5.03996 -19.0131 -28.233 1.51469e+06 
280 -0.02205 8.83491e-05 1477.39 273.608 5.03386 5.04075 -19.7754 -29.3221 1.51801e+06 
281 -0.02195 8.83501e-05 1477.39 273.624 5.0342 5.04125 -20.5873 -30.4413 1.52144e+06 
282 -0.02185 8.83504e-05 1477.39 273.644 5.03459 5.04193 -21.2748 -31.4197 1.52479e+06 
283 -0.02175 8.83503e-05 1477.38 273.667 5.035 5.04248 -22.1509 -32.611 1.5283e+06 
284 -0.02165 8.83508e-05 1477.37 273.687 5.03541 5.04337 -23.0086 -34.0218 1.53235e+06 
285 -0.02155 8.83503e-05 1477.37 273.707 5.03575 5.04388 -23.7528 -35.08 1.53568e+06 
286 -0.02145 8.83516e-05 1477.36 273.731 5.03626 5.04469 -24.7872 -36.4935 1.5403e+06 
287 -0.02135 8.83516e-05 1477.35 273.755 5.0367 5.04548 -25.5756 -37.6751 1.54409e+06 
288 -0.02125 8.83526e-05 1477.35 273.785 5.03732 5.0465 -26.9128 -39.5174 1.54956e+06 
301 -0.01995 8.8359e-05 1477.24 274.2 5.04531 5.06022 -43.185 -63.8071 1.6229e+06 
321 -0.01795 8.83768e-05 1476.94 275.4 5.06841 5.0998 -90.4549 -133.79 1.83418e+06 
322 -0.01785 8.83784e-05 1476.92 275.472 5.06983 5.10228 -93.2068 -138.117 1.84704e+06 
323 -0.01775 8.83796e-05 1476.89 275.564 5.07159 5.10539 -96.9761 -143.727 1.86366e+06 
324 -0.01765 8.83817e-05 1476.87 275.663 5.07353 5.1087 -100.696 -149.315 1.8805e+06 
325 -0.01755 8.83817e-05 1476.85 275.751 5.07515 5.11145 -104.221 -154.403 1.89617e+06 
302 -0.01985 8.83597e-05 1477.23 274.231 5.04592 5.06131 -44.3509 -65.7101 1.62858e+06 
303 -0.01975 8.83602e-05 1477.22 274.282 5.04688 5.06283 -46.4546 -68.7029 1.63754e+06 
304 -0.01965 8.83607e-05 1477.21 274.325 5.04771 5.06424 -48.0735 -71.0245 1.64492e+06 
305 -0.01955 8.83615e-05 1477.2 274.369 5.04857 5.06588 -49.8022 -73.8186 1.6527e+06 
306 -0.01945 8.83625e-05 1477.19 274.413 5.04944 5.06736 -51.6664 -76.5149 1.66115e+06 
307 -0.01935 8.8363e-05 1477.17 274.466 5.05044 5.06897 -53.5718 -79.3102 1.66948e+06 
308 -0.01925 8.8364e-05 1477.16 274.521 5.05151 5.07087 -55.9421 -82.7456 1.67978e+06 
309 -0.01915 8.83639e-05 1477.15 274.571 5.05242 5.07232 -57.8582 -85.5578 1.68858e+06 
310 -0.01905 8.83652e-05 1477.14 274.63 5.05358 5.07433 -60.0828 -88.8655 1.69851e+06 
311 -0.01895 8.83665e-05 1477.12 274.684 5.05465 5.07609 -62.3947 -92.1322 1.70878e+06 
312 -0.01885 8.8366e-05 1477.11 274.743 5.0557 5.07808 -64.5968 -95.552 1.71885e+06 
313 -0.01875 8.8368e-05 1477.09 274.796 5.05679 5.07987 -66.6325 -98.7013 1.72861e+06 
314 -0.01865 8.83682e-05 1477.08 274.858 5.05795 5.08194 -69.1233 -102.426 1.73973e+06 
315 -0.01855 8.83695e-05 1477.06 274.931 5.05936 5.08436 -72.0323 -106.67 1.75256e+06 
316 -0.01845 8.83714e-05 1477.04 275.009 5.06091 5.08706 -75.0604 -111.15 1.76544e+06 
317 -0.01835 8.83721e-05 1477.02 275.073 5.06212 5.08917 -77.5274 -114.967 1.77708e+06 
318 -0.01825 8.8373e-05 1477 275.145 5.06351 5.09134 -80.3865 -119.143 1.78965e+06 
319 -0.01815 8.83738e-05 1476.98 275.222 5.06497 5.09398 -83.4547 -123.724 1.80343e+06 
320 -0.01805 8.83768e-05 1476.96 275.316 5.06687 5.0971 -87.129 -128.947 1.81933e+06 
334 -0.01665 8.84003e-05 1476.56 276.857 5.09657 5.14862 -147.768 -218.967 2.08769e+06 
326 -0.01745 8.83846e-05 1476.82 275.848 5.0771 5.11485 -108.086 -160.283 1.91358e+06 
327 -0.01735 8.8386e-05 1476.79 275.964 5.07932 5.11874 -112.63 -166.872 1.93307e+06 
328 -0.01725 8.83867e-05 1476.77 276.058 5.08109 5.12205 -116.381 -172.854 1.95056e+06 
329 -0.01715 8.83896e-05 1476.73 276.192 5.08373 5.12664 -121.568 -180.338 1.97256e+06 
330 -0.01705 8.83918e-05 1476.7 276.323 5.08626 5.131 -126.783 -187.954 1.99524e+06 
331 -0.01695 8.83936e-05 1476.67 276.45 5.0887 5.13527 -131.716 -195.322 2.01708e+06 
332 -0.01685 8.83956e-05 1476.64 276.571 5.09104 5.13908 -136.513 -202.323 2.03882e+06 
333 -0.01675 8.83968e-05 1476.6 276.712 5.09372 5.14377 -142.092 -210.507 2.06312e+06 
335 -0.01655 8.84021e-05 1476.53 277.001 5.09934 5.15342 -153.401 -227.159 2.11298e+06 
336 -0.01645 8.84047e-05 1476.49 277.146 5.10215 5.15812 -159.171 -235.763 2.13871e+06 
337 -0.01635 8.84075e-05 1476.45 277.309 5.10532 5.16365 -165.561 -245.321 2.16713e+06 
338 -0.01625 8.84092e-05 1476.41 277.468 5.10835 5.16899 -171.809 -254.726 2.1945e+06 