ITEM: TIMESTEP
30000
ITEM: NUMBER OF CELLS
800
ITEM: BOX BOUNDS os pp pp
-0.05 0.03
-0.001 0.001
-0.001 0.001
ITEM: CELLS id f_1[1] f_1[2] f_1[3] f_1[4] f_1[5] f_1[6] f_1[7] f_1[8] f_1[9] 
1 -0.04995 8.83413e-05 1477.53 273.12 5.02442 5.02354 -0.0113156 -0.00843532 1.42676e+06 
2 -0.04985 8.83417e-05 1477.53 273.121 5.02448 5.02358 -0.0269914 -0.0370105 1.42684e+06 
3 -0.04975 8.83412e-05 1477.53 273.122 5.02447 5.02353 -0.0548994 -0.0714444 1.42688e+06 
4 -0.04965 8.83413e-05 1477.53 273.122 5.02447 5.02358 -0.0889749 -0.143067 1.42696e+06 
5 -0.04955 8.83412e-05 1477.53 273.123 5.02449 5.02374 -0.135044 -0.217582 1.42708e+06 
6 -0.04945 8.83421e-05 1477.53 273.123 5.02454 5.02381 -0.148304 -0.262804 1.42718e+06 
7 -0.04935 8.83413e-05 1477.53 273.125 5.02452 5.02391 -0.160356 -0.285817 1.42727e+06 
8 -0.04925 8.83411e-05 1477.53 273.125 5.02451 5.02397 -0.209775 -0.374648 1.42733e+06 
9 -0.04915 8.83416e-05 1477.53 273.127 5.02458 5.02405 -0.216848 -0.404431 1.42741e+06 
10 -0.04905 8.83419e-05 1477.53 273.126 5.02458 5.0241 -0.220388 -0.433687 1.42746e+06 
11 -0.04895 8.83416e-05 1477.53 273.128 5.02459 5.02412 -0.262553 -0.488026 1.4275e+06 
12 -0.04885 8.83421e-05 1477.53 273.127 5.02461 5.02412 -0.255652 -0.509959 1.42754e+06 
13 -0.04875 8.83407e-05 1477.53 273.129 5.02456 5.024 -0.2782 -0.531112 1.42755e+06 
14 -0.04865 8.83427e-05 1477.52 273.128 5.02466 5.02423 -0.320856 -0.591544 1.42767e+06 
15 -0.04855 8.83409e-05 1477.53 273.129 5.02457 5.02419 -0.317649 -0.61243 1.42771e+06 
16 -0.04845 8.83423e-05 1477.53 273.128 5.02464 5.02424 -0.32664 -0.634726 1.42775e+06 
17 -0.04835 8.83409e-05 1477.52 273.128 5.02456 5.02419 -0.326171 -0.65599 1.42775e+06 
18 -0.04825 8.83425e-05 1477.52 273.13 5.02468 5.02432 -0.316331 -0.647388 1.4278e+06 
19 -0.04815 8.8342e-05 1477.53 273.13 5.02465 5.02421 -0.336372 -0.679742 1.42776e+06 
20 -0.04805 8.8342e-05 1477.53 273.128 5.02463 5.02417 -0.322194 -0.668198 1.42778e+06 
21 -0.04795 8.8341e-05 1477.53 273.128 5.02457 5.02415 -0.303012 -0.652645 1.42781e+06 
22 -0.04785 8.83415e-05 1477.53 273.129 5.02461 5.02415 -0.320632 -0.653413 1.42782e+06 
23 -0.04775 8.83418e-05 1477.53 273.129 5.02463 5.02421 -0.315597 -0.666252 1.42784e+06 
24 -0.04765 8.83418e-05 1477.53 273.127 5.02459 5.02417 -0.311294 -0.671871 1.42785e+06 
25 -0.04755 8.83412e-05 1477.52 273.128 5.02458 5.02423 -0.302996 -0.67024 1.42789e+06 
34 -0.04665 8.83415e-05 1477.53 273.13 5.02463 5.02434 -0.338622 -0.63724 1.428e+06 
33 -0.04675 8.83422e-05 1477.52 273.128 5.02463 5.02436 -0.330563 -0.646564 1.42803e+06 
35 -0.04655 8.8342e-05 1477.52 273.128 5.02462 5.0244 -0.318742 -0.607825 1.42804e+06 
36 -0.04645 8.83413e-05 1477.52 273.128 5.02458 5.02438 -0.340497 -0.626997 1.42806e+06 
37 -0.04635 8.83418e-05 1477.53 273.131 5.02466 5.02452 -0.327451 -0.618563 1.42813e+06 
38 -0.04625 8.83422e-05 1477.52 273.128 5.02463 5.02452 -0.323691 -0.6221 1.42813e+06 
39 -0.04615 8.83415e-05 1477.52 273.129 5.02461 5.02446 -0.299122 -0.604212 1.42814e+06 
40 -0.04605 8.83417e-05 1477.53 273.127 5.02458 5.02445 -0.314303 -0.600585 1.42817e+06 
41 -0.04595 8.83421e-05 1477.52 273.127 5.02461 5.02445 -0.322205 -0.61147 1.42818e+06 
42 -0.04585 8.83421e-05 1477.52 273.129 5.02465 5.02449 -0.341684 -0.632687 1.42824e+06 
43 -0.04575 8.83411e-05 1477.52 273.127 5.02456 5.02441 -0.319625 -0.597396 1.42818e+06 
44 -0.04565 8.83425e-05 1477.52 273.128 5.02465 5.02444 -0.316058 -0.553106 1.42821e+06 
45 -0.04555 8.83416e-05 1477.52 273.13 5.02463 5.02442 -0.344257 -0.575743 1.42821e+06 
46 -0.04545 8.83422e-05 1477.52 273.128 5.02463 5.02435 -0.339176 -0.56251 1.4282e+06 
47 -0.04535 8.83417e-05 1477.52 273.128 5.0246 5.02433 -0.340021 -0.56764 1.42822e+06 
48 -0.04525 8.83416e-05 1477.53 273.128 5.02461 5.02432 -0.343307 -0.557034 1.42822e+06 
49 -0.04515 8.83416e-05 1477.53 273.128 5.0246 5.02426 -0.328537 -0.569165 1.42819e+06 
50 -0.04505 8.83416e-05 1477.53 273.129 5.02461 5.02428 -0.325312 -0.533859 1.42819e+06 
26 -0.04745 8.83417e-05 1477.53 273.13 5.02463 5.02438 -0.286235 -0.648153 1.42797e+06 
27 -0.04735 8.83421e-05 1477.52 273.129 5.02465 5.02436 -0.317192 -0.678344 1.42799e+06 
28 -0.04725 8.83412e-05 1477.53 273.129 5.0246 5.02443 -0.350063 -0.745048 1.42803e+06 
29 -0.04715 8.83418e-05 1477.52 273.13 5.02465 5.02439 -0.357498 -0.723608 1.42803e+06 
30 -0.04705 8.83419e-05 1477.53 273.13 5.02465 5.02448 -0.355704 -0.735448 1.42809e+06 
31 -0.04695 8.83423e-05 1477.52 273.129 5.02466 5.02456 -0.382095 -0.750928 1.42813e+06 
32 -0.04685 8.83416e-05 1477.52 273.131 5.02465 5.02443 -0.376043 -0.709007 1.42808e+06 
67 -0.04335 8.8342e-05 1477.53 273.13 5.02466 5.02423 -0.36828 -0.545059 1.42839e+06 
65 -0.04355 8.83418e-05 1477.53 273.126 5.02457 5.02411 -0.315594 -0.469115 1.42823e+06 
66 -0.04345 8.83412e-05 1477.53 273.127 5.02456 5.02406 -0.345099 -0.516809 1.42823e+06 
68 -0.04325 8.83423e-05 1477.53 273.13 5.02467 5.02423 -0.317667 -0.48708 1.42831e+06 
69 -0.04315 8.83413e-05 1477.53 273.127 5.02456 5.02403 -0.333006 -0.475027 1.42823e+06 
70 -0.04305 8.83417e-05 1477.53 273.129 5.02463 5.02415 -0.311864 -0.448961 1.42831e+06 
71 -0.04295 8.83415e-05 1477.53 273.128 5.02459 5.0241 -0.352578 -0.495706 1.42833e+06 
72 -0.04285 8.83414e-05 1477.52 273.128 5.02459 5.02414 -0.357996 -0.521451 1.4284e+06 
73 -0.04275 8.8342e-05 1477.52 273.129 5.02464 5.02429 -0.349172 -0.488482 1.42846e+06 
74 -0.04265 8.8342e-05 1477.52 273.129 5.02464 5.02437 -0.36408 -0.501406 1.4285e+06 
75 -0.04255 8.83418e-05 1477.53 273.13 5.02465 5.02436 -0.356586 -0.495515 1.42852e+06 
51 -0.04495 8.83414e-05 1477.52 273.129 5.02459 5.02424 -0.321706 -0.532327 1.42818e+06 
52 -0.04485 8.83416e-05 1477.53 273.13 5.02463 5.02427 -0.309306 -0.490527 1.4282e+06 
53 -0.04475 8.83418e-05 1477.53 273.128 5.02462 5.02419 -0.306219 -0.474018 1.42818e+06 
54 -0.04465 8.83421e-05 1477.53 273.127 5.0246 5.02415 -0.309361 -0.463148 1.42816e+06 
55 -0.04455 8.8341e-05 1477.53 273.126 5.02453 5.02413 -0.287048 -0.437152 1.42813e+06 
56 -0.04445 8.83421e-05 1477.53 273.128 5.02463 5.02421 -0.292699 -0.480835 1.42818e+06 
57 -0.04435 8.83416e-05 1477.53 273.126 5.02455 5.02417 -0.287576 -0.485467 1.42815e+06 
58 -0.04425 8.83425e-05 1477.52 273.127 5.02463 5.02423 -0.271126 -0.467528 1.42818e+06 
59 -0.04415 8.83415e-05 1477.53 273.127 5.02458 5.02423 -0.301364 -0.480463 1.42821e+06 
60 -0.04405 8.83419e-05 1477.53 273.126 5.02457 5.02422 -0.300765 -0.498126 1.42822e+06 
61 -0.04395 8.8342e-05 1477.53 273.132 5.02469 5.02433 -0.305039 -0.511435 1.42825e+06 
62 -0.04385 8.83416e-05 1477.52 273.124 5.02453 5.0241 -0.308692 -0.518142 1.42816e+06 
63 -0.04375 8.83414e-05 1477.53 273.128 5.02458 5.02416 -0.297539 -0.449761 1.42823e+06 
64 -0.04365 8.83426e-05 1477.53 273.129 5.02467 5.02422 -0.304416 -0.47429 1.42827e+06 
100 -0.04005 8.83412e-05 1477.52 273.128 5.02458 5.02432 -0.2976 -0.4033 1.42854e+06 
97 -0.04035 8.83413e-05 1477.53 273.129 5.0246 5.02437 -0.32283 -0.404961 1.42857e+06 
98 -0.04025 8.83421e-05 1477.52 273.128 5.02463 5.02434 -0.280448 -0.356167 1.42851e+06 
99 -0.04015 8.83413e-05 1477.52 273.128 5.02457 5.02435 -0.276956 -0.324285 1.4285e+06 
76 -0.04245 8.83419e-05 1477.52 273.129 5.02463 5.02434 -0.3605 -0.437492 1.42848e+06 
77 -0.04235 8.83417e-05 1477.52 273.129 5.02462 5.02433 -0.380615 -0.453839 1.42848e+06 
78 -0.04225 8.83419e-05 1477.52 273.13 5.02465 5.02447 -0.401912 -0.49086 1.42855e+06 
79 -0.04215 8.83418e-05 1477.52 273.132 5.02468 5.02441 -0.38062 -0.439277 1.42853e+06 
80 -0.04205 8.83414e-05 1477.52 273.129 5.02461 5.02438 -0.35916 -0.395401 1.4285e+06 
81 -0.04195 8.83416e-05 1477.52 273.13 5.02463 5.02433 -0.364317 -0.40966 1.42846e+06 
82 -0.04185 8.83419e-05 1477.52 273.128 5.02462 5.02426 -0.358935 -0.362694 1.42841e+06 
83 -0.04175 8.83412e-05 1477.52 273.13 5.0246 5.02415 -0.314621 -0.323662 1.42835e+06 
84 -0.04165 8.83421e-05 1477.53 273.128 5.02462 5.02415 -0.330449 -0.292355 1.42831e+06 
85 -0.04155 8.83415e-05 1477.53 273.131 5.02465 5.02414 -0.32976 -0.317192 1.42832e+06 
86 -0.04145 8.83421e-05 1477.53 273.127 5.02461 5.02412 -0.347332 -0.365694 1.42832e+06 
87 -0.04135 8.83415e-05 1477.53 273.128 5.02459 5.02419 -0.298936 -0.318773 1.42835e+06 
88 -0.04125 8.83419e-05 1477.52 273.127 5.0246 5.02418 -0.315092 -0.327766 1.42836e+06 
89 -0.04115 8.8341e-05 1477.53 273.127 5.02454 5.02417 -0.30614 -0.319038 1.42836e+06 
90 -0.04105 8.83419e-05 1477.53 273.129 5.02464 5.02435 -0.319938 -0.326229 1.42849e+06 
91 -0.04095 8.8342e-05 1477.52 273.129 5.02464 5.02441 -0.346388 -0.372959 1.42855e+06 
92 -0.04085 8.83416e-05 1477.53 273.13 5.02463 5.02447 -0.357106 -0.414275 1.42859e+06 
93 -0.04075 8.83421e-05 1477.52 273.127 5.02461 5.02443 -0.336522 -0.406317 1.42856e+06 
94 -0.04065 8.8342e-05 1477.52 273.13 5.02466 5.0244 -0.327825 -0.423433 1.42861e+06 
95 -0.04055 8.83419e-05 1477.53 273.128 5.02462 5.02441 -0.352883 -0.450764 1.42863e+06 
96 -0.04045 8.83418e-05 1477.52 273.13 5.02465 5.02441 -0.344165 -0.419467 1.42859e+06 
101 -0.03995 8.83419e-05 1477.52 273.13 5.02466 5.02441 -0.306744 -0.404725 1.42859e+06 
102 -0.03985 8.83414e-05 1477.53 273.128 5.02459 5.02438 -0.312678 -0.419944 1.42857e+06 
103 -0.03975 8.83413e-05 1477.52 273.129 5.0246 5.02436 -0.304834 -0.393607 1.42861e+06 
104 -0.03965 8.83411e-05 1477.52 273.128 5.02457 5.02427 -0.294007 -0.379668 1.42857e+06 
105 -0.03955 8.83414e-05 1477.52 273.13 5.02462 5.0244 -0.308144 -0.453762 1.42866e+06 
106 -0.03945 8.83424e-05 1477.53 273.129 5.02467 5.02437 -0.314504 -0.410945 1.42862e+06 
107 -0.03935 8.83408e-05 1477.52 273.127 5.02453 5.02431 -0.293854 -0.410799 1.42865e+06 
108 -0.03925 8.83421e-05 1477.52 273.127 5.02461 5.02437 -0.287105 -0.396944 1.42866e+06 
109 -0.03915 8.83411e-05 1477.53 273.127 5.02455 5.02428 -0.300227 -0.430339 1.42865e+06 
110 -0.03905 8.83421e-05 1477.52 273.129 5.02464 5.02443 -0.305693 -0.436503 1.42872e+06 
111 -0.03895 8.83416e-05 1477.52 273.127 5.02458 5.02432 -0.269956 -0.391813 1.42867e+06 
112 -0.03885 8.83413e-05 1477.52 273.128 5.02458 5.02431 -0.305427 -0.412133 1.42871e+06 
113 -0.03875 8.83414e-05 1477.53 273.128 5.02458 5.02432 -0.299321 -0.446757 1.42875e+06 
114 -0.03865 8.83423e-05 1477.53 273.129 5.02466 5.02443 -0.312222 -0.472757 1.42881e+06 
115 -0.03855 8.8341e-05 1477.52 273.129 5.02457 5.0243 -0.352851 -0.534087 1.42882e+06 
116 -0.03845 8.83416e-05 1477.53 273.129 5.02461 5.02442 -0.361615 -0.552097 1.42896e+06 
117 -0.03835 8.83409e-05 1477.52 273.129 5.02457 5.02441 -0.360851 -0.596864 1.42892e+06 
118 -0.03825 8.83417e-05 1477.53 273.129 5.02462 5.02448 -0.334584 -0.550712 1.42897e+06 
119 -0.03815 8.83406e-05 1477.52 273.128 5.02453 5.0244 -0.37223 -0.600749 1.42899e+06 
120 -0.03805 8.83418e-05 1477.52 273.129 5.02463 5.02442 -0.325238 -0.53015 1.42898e+06 
121 -0.03795 8.83417e-05 1477.53 273.129 5.02462 5.02443 -0.358678 -0.531579 1.42898e+06 
122 -0.03785 8.83409e-05 1477.53 273.128 5.02455 5.02431 -0.361396 -0.545 1.42895e+06 
123 -0.03775 8.83412e-05 1477.53 273.127 5.02456 5.02428 -0.358056 -0.544804 1.42895e+06 
124 -0.03765 8.83408e-05 1477.53 273.129 5.02457 5.02438 -0.360723 -0.526365 1.42898e+06 
125 -0.03755 8.83415e-05 1477.53 273.129 5.02462 5.02437 -0.375276 -0.558035 1.429e+06 
134 -0.03665 8.83413e-05 1477.52 273.132 5.02464 5.02469 -0.417053 -0.626945 1.42926e+06 
129 -0.03715 8.83414e-05 1477.53 273.132 5.02466 5.02465 -0.414839 -0.676359 1.42915e+06 
130 -0.03705 8.83417e-05 1477.52 273.13 5.02465 5.02465 -0.4021 -0.658797 1.42917e+06 
131 -0.03695 8.83405e-05 1477.52 273.13 5.02458 5.02464 -0.408852 -0.672885 1.4292e+06 
132 -0.03685 8.83423e-05 1477.52 273.132 5.02472 5.02479 -0.427824 -0.69219 1.42936e+06 
133 -0.03675 8.83412e-05 1477.52 273.132 5.02464 5.02462 -0.442823 -0.683931 1.42924e+06 
135 -0.03655 8.83413e-05 1477.52 273.132 5.02465 5.02465 -0.418852 -0.588462 1.42924e+06 
136 -0.03645 8.83416e-05 1477.53 273.132 5.02468 5.02464 -0.42257 -0.572056 1.42928e+06 
137 -0.03635 8.83411e-05 1477.52 273.131 5.02462 5.02454 -0.427972 -0.524799 1.42927e+06 
138 -0.03625 8.83419e-05 1477.52 273.131 5.02467 5.02463 -0.406114 -0.478105 1.42927e+06 
139 -0.03615 8.83409e-05 1477.52 273.131 5.02462 5.02455 -0.394701 -0.508833 1.42928e+06 
140 -0.03605 8.83415e-05 1477.53 273.13 5.02463 5.02453 -0.398094 -0.489958 1.42938e+06 
141 -0.03595 8.83411e-05 1477.52 273.13 5.02461 5.02453 -0.41753 -0.530505 1.42931e+06 
142 -0.03585 8.83416e-05 1477.52 273.132 5.02468 5.02455 -0.374766 -0.499186 1.42941e+06 
143 -0.03575 8.83412e-05 1477.53 273.13 5.02462 5.02448 -0.38337 -0.480563 1.42935e+06 
144 -0.03565 8.83417e-05 1477.53 273.129 5.02462 5.02449 -0.361912 -0.462533 1.42936e+06 
145 -0.03555 8.83416e-05 1477.52 273.132 5.02467 5.02459 -0.368936 -0.473171 1.42944e+06 
146 -0.03545 8.83419e-05 1477.52 273.13 5.02464 5.02459 -0.352035 -0.456223 1.42946e+06 
147 -0.03535 8.83412e-05 1477.52 273.129 5.0246 5.02455 -0.366134 -0.471408 1.4294e+06 
148 -0.03525 8.83414e-05 1477.53 273.13 5.02463 5.02458 -0.375557 -0.485951 1.42958e+06 
149 -0.03515 8.83415e-05 1477.52 273.131 5.02466 5.02461 -0.390001 -0.477575 1.4296e+06 
150 -0.03505 8.83411e-05 1477.53 273.132 5.02464 5.02464 -0.391364 -0.508513 1.42966e+06 
126 -0.03745 8.83415e-05 1477.53 273.128 5.0246 5.02451 -0.365508 -0.596376 1.42906e+06 
127 -0.03735 8.83405e-05 1477.52 273.13 5.02458 5.0245 -0.386277 -0.63932 1.42907e+06 
128 -0.03725 8.83417e-05 1477.52 273.129 5.02463 5.02456 -0.418077 -0.68443 1.42911e+06 
167 -0.03335 8.8342e-05 1477.52 273.139 5.02482 5.02497 -0.663716 -1.02884 1.43073e+06 
161 -0.03395 8.83416e-05 1477.52 273.136 5.02475 5.02485 -0.528907 -0.789385 1.43021e+06 
162 -0.03385 8.83422e-05 1477.52 273.137 5.02479 5.02489 -0.558887 -0.870627 1.43026e+06 
163 -0.03375 8.83418e-05 1477.53 273.135 5.02474 5.02482 -0.561647 -0.854526 1.43027e+06 
164 -0.03365 8.83421e-05 1477.52 273.139 5.02483 5.02498 -0.588451 -0.900083 1.43044e+06 
165 -0.03355 8.83415e-05 1477.52 273.138 5.02477 5.02495 -0.615507 -0.955372 1.43051e+06 
166 -0.03345 8.83417e-05 1477.52 273.139 5.02481 5.02498 -0.645596 -0.973654 1.43062e+06 
168 -0.03325 8.83416e-05 1477.53 273.14 5.02481 5.02505 -0.671654 -0.990188 1.43071e+06 
169 -0.03315 8.83417e-05 1477.52 273.139 5.02481 5.02495 -0.653733 -0.984739 1.43079e+06 
170 -0.03305 8.83417e-05 1477.52 273.136 5.02475 5.02494 -0.651112 -0.998155 1.43081e+06 
171 -0.03295 8.83419e-05 1477.52 273.141 5.02485 5.02489 -0.657268 -1.02065 1.4308e+06 
172 -0.03285 8.83414e-05 1477.53 273.137 5.02475 5.02487 -0.657227 -1.01537 1.43091e+06 
173 -0.03275 8.83421e-05 1477.52 273.139 5.02483 5.02493 -0.666622 -1.03911 1.43096e+06 
174 -0.03265 8.83418e-05 1477.52 273.137 5.02478 5.02495 -0.659601 -1.03914 1.43101e+06 
175 -0.03255 8.83424e-05 1477.52 273.14 5.02486 5.02503 -0.742107 -1.13514 1.43126e+06 
151 -0.03495 8.83418e-05 1477.52 273.132 5.02469 5.02467 -0.437034 -0.559626 1.42972e+06 
152 -0.03485 8.83412e-05 1477.53 273.133 5.02467 5.02474 -0.409767 -0.546882 1.4298e+06 
153 -0.03475 8.83412e-05 1477.52 273.132 5.02464 5.02469 -0.455564 -0.614876 1.42979e+06 
154 -0.03465 8.83413e-05 1477.53 273.132 5.02465 5.02476 -0.461311 -0.59375 1.42983e+06 
155 -0.03455 8.83416e-05 1477.52 273.134 5.0247 5.02471 -0.458865 -0.637414 1.42985e+06 
156 -0.03445 8.83418e-05 1477.52 273.134 5.02471 5.02473 -0.459183 -0.66118 1.42986e+06 
157 -0.03435 8.83413e-05 1477.53 273.137 5.02475 5.02478 -0.515979 -0.753991 1.43003e+06 
158 -0.03425 8.83421e-05 1477.52 273.134 5.02474 5.02481 -0.521635 -0.753903 1.43004e+06 
159 -0.03415 8.83414e-05 1477.52 273.135 5.02472 5.02476 -0.538416 -0.794153 1.43007e+06 
160 -0.03405 8.83422e-05 1477.52 273.135 5.02475 5.02486 -0.526762 -0.781464 1.43013e+06 
200 -0.03005 8.83415e-05 1477.52 273.156 5.02511 5.0258 -1.41488 -2.268 1.43449e+06 
193 -0.03075 8.83415e-05 1477.52 273.148 5.02496 5.02536 -1.07162 -1.71363 1.433e+06 
194 -0.03065 8.83419e-05 1477.52 273.15 5.02502 5.02546 -1.11029 -1.78293 1.43331e+06 
195 -0.03055 8.83425e-05 1477.52 273.151 5.02507 5.02559 -1.18551 -1.89089 1.43352e+06 
196 -0.03045 8.83423e-05 1477.52 273.149 5.02503 5.02557 -1.17841 -1.90051 1.43356e+06 
197 -0.03035 8.83422e-05 1477.52 273.153 5.02509 5.02572 -1.27953 -2.028 1.43386e+06 
198 -0.03025 8.83416e-05 1477.52 273.153 5.02506 5.02573 -1.30194 -2.07108 1.43404e+06 
199 -0.03015 8.83421e-05 1477.52 273.153 5.02509 5.02578 -1.31735 -2.11826 1.43411e+06 
176 -0.03245 8.8341e-05 1477.52 273.14 5.02478 5.02494 -0.747936 -1.15835 1.43125e+06 
177 -0.03235 8.83422e-05 1477.52 273.139 5.02483 5.02488 -0.712215 -1.09147 1.43118e+06 
178 -0.03225 8.83416e-05 1477.52 273.139 5.0248 5.0249 -0.721198 -1.09647 1.43124e+06 
179 -0.03215 8.83421e-05 1477.52 273.141 5.02486 5.02495 -0.746173 -1.14822 1.4313e+06 
180 -0.03205 8.83418e-05 1477.52 273.141 5.02485 5.02503 -0.746818 -1.17352 1.43145e+06 
181 -0.03195 8.83417e-05 1477.52 273.14 5.02483 5.025 -0.799311 -1.26834 1.43165e+06 
182 -0.03185 8.83424e-05 1477.52 273.141 5.02488 5.02515 -0.823264 -1.29916 1.43169e+06 
183 -0.03175 8.83423e-05 1477.52 273.144 5.02492 5.02523 -0.857571 -1.37494 1.43184e+06 
184 -0.03165 8.83416e-05 1477.52 273.145 5.02492 5.02526 -0.947719 -1.53224 1.43217e+06 
185 -0.03155 8.83418e-05 1477.52 273.145 5.02492 5.02518 -0.945367 -1.54947 1.43216e+06 
186 -0.03145 8.83423e-05 1477.52 273.146 5.02497 5.02525 -0.930289 -1.52918 1.43215e+06 
187 -0.03135 8.83412e-05 1477.52 273.143 5.02485 5.02516 -0.924184 -1.54514 1.43222e+06 
188 -0.03125 8.83433e-05 1477.52 273.143 5.02498 5.02532 -0.907378 -1.54414 1.43228e+06 
189 -0.03115 8.83418e-05 1477.52 273.143 5.02489 5.02519 -0.950192 -1.60218 1.43235e+06 
190 -0.03105 8.83421e-05 1477.52 273.146 5.02496 5.0253 -0.983843 -1.62732 1.43264e+06 
191 -0.03095 8.83414e-05 1477.52 273.146 5.02492 5.02528 -0.99963 -1.64447 1.43262e+06 
192 -0.03085 8.83422e-05 1477.52 273.146 5.02497 5.02532 -1.05321 -1.71273 1.43294e+06 
201 -0.02995 8.83418e-05 1477.52 273.155 5.0251 5.02571 -1.45056 -2.29709 1.43453e+06 
225 -0.02755 8.83419e-05 1477.51 273.193 5.0258 5.02702 -2.8174 -4.38415 1.4414e+06 
202 -0.02985 8.83415e-05 1477.52 273.158 5.02514 5.02576 -1.48956 -2.35644 1.43483e+06 
203 -0.02975 8.83421e-05 1477.52 273.159 5.02519 5.02584 -1.51332 -2.43324 1.43499e+06 
204 -0.02965 8.83427e-05 1477.52 273.159 5.02523 5.02584 -1.55459 -2.46913 1.43516e+06 
205 -0.02955 8.8342e-05 1477.52 273.16 5.02522 5.02586 -1.62417 -2.61953 1.43535e+06 
206 -0.02945 8.83416e-05 1477.52 273.162 5.02522 5.02579 -1.65715 -2.64194 1.43555e+06 
207 -0.02935 8.83427e-05 1477.52 273.163 5.0253 5.02597 -1.70238 -2.6862 1.43576e+06 
208 -0.02925 8.8342e-05 1477.51 273.165 5.0253 5.02609 -1.80278 -2.83775 1.43625e+06 
209 -0.02915 8.83419e-05 1477.51 273.167 5.02534 5.026 -1.78863 -2.81964 1.43623e+06 
210 -0.02905 8.83421e-05 1477.52 273.164 5.02529 5.02594 -1.78519 -2.80975 1.4363e+06 
211 -0.02895 8.8342e-05 1477.51 273.167 5.02534 5.02602 -1.86474 -2.94602 1.43662e+06 
212 -0.02885 8.83426e-05 1477.51 273.169 5.02542 5.02611 -1.89049 -2.93947 1.43686e+06 
213 -0.02875 8.83418e-05 1477.52 273.171 5.02539 5.02615 -1.95138 -3.06192 1.43714e+06 
214 -0.02865 8.83427e-05 1477.51 273.172 5.02547 5.02628 -2.01136 -3.16707 1.43749e+06 
215 -0.02855 8.83421e-05 1477.51 273.174 5.02547 5.02643 -2.10597 -3.30081 1.43786e+06 
216 -0.02845 8.83431e-05 1477.51 273.176 5.02557 5.02643 -2.18696 -3.39763 1.43821e+06 
217 -0.02835 8.83422e-05 1477.51 273.178 5.02555 5.02654 -2.23089 -3.50664 1.43852e+06 
218 -0.02825 8.83428e-05 1477.51 273.179 5.02561 5.02663 -2.27768 -3.58291 1.43882e+06 
219 -0.02815 8.83421e-05 1477.51 273.18 5.02558 5.02651 -2.38909 -3.70693 1.43913e+06 
220 -0.02805 8.83419e-05 1477.51 273.184 5.02564 5.02666 -2.41116 -3.80158 1.43954e+06 
221 -0.02795 8.83433e-05 1477.51 273.185 5.02574 5.02678 -2.47123 -3.90259 1.4399e+06 
222 -0.02785 8.83423e-05 1477.51 273.186 5.02571 5.02674 -2.61808 -4.10075 1.4404e+06 
223 -0.02775 8.83427e-05 1477.51 273.189 5.02579 5.02696 -2.67947 -4.15848 1.4408e+06 
224 -0.02765 8.83425e-05 1477.51 273.192 5.02583 5.02707 -2.77503 -4.33316 1.44128e+06 
234 -0.02665 8.83435e-05 1477.5 273.219 5.02638 5.02795 -3.86915 -5.90898 1.4463e+06 
226 -0.02745 8.83431e-05 1477.51 273.193 5.02588 5.02714 -2.88919 -4.50718 1.44191e+06 
227 -0.02735 8.83428e-05 1477.5 273.197 5.02595 5.02722 -2.99742 -4.6604 1.44228e+06 
228 -0.02725 8.83426e-05 1477.5 273.201 5.026 5.0273 -3.11162 -4.84073 1.44289e+06 
229 -0.02715 8.83429e-05 1477.51 273.201 5.02601 5.02735 -3.18535 -4.92993 1.44331e+06 
230 -0.02705 8.83434e-05 1477.5 273.205 5.02611 5.02747 -3.2706 -5.05386 1.44367e+06 
231 -0.02695 8.83431e-05 1477.5 273.207 5.02614 5.02757 -3.43525 -5.28621 1.44439e+06 
232 -0.02685 8.83428e-05 1477.5 273.21 5.02617 5.02765 -3.56243 -5.47821 1.4449e+06 
233 -0.02675 8.83439e-05 1477.5 273.216 5.02634 5.02789 -3.65821 -5.61382 1.44545e+06 
235 -0.02655 8.83428e-05 1477.5 273.22 5.02636 5.02794 -3.91443 -5.95485 1.44659e+06 
236 -0.02645 8.83441e-05 1477.5 273.224 5.0265 5.02811 -4.01637 -6.17358 1.44704e+06 
237 -0.02635 8.83442e-05 1477.5 273.226 5.02655 5.02823 -4.18539 -6.41515 1.44779e+06 
238 -0.02625 8.8343e-05 1477.5 273.234 5.02663 5.02843 -4.43882 -6.76174 1.44876e+06 
239 -0.02615 8.83439e-05 1477.49 273.238 5.02676 5.02864 -4.59256 -6.97685 1.44959e+06 
240 -0.02605 8.83432e-05 1477.49 273.239 5.02674 5.02863 -4.71044 -7.16057 1.45011e+06 
241 -0.02595 8.83442e-05 1477.49 273.243 5.02686 5.02872 -4.8269 -7.33647 1.45069e+06 
242 -0.02585 8.83436e-05 1477.49 273.249 5.02695 5.02892 -5.02325 -7.62469 1.45152e+06 
243 -0.02575 8.83443e-05 1477.49 273.256 5.0271 5.02907 -5.23114 -7.90387 1.45246e+06 
244 -0.02565 8.83439e-05 1477.49 273.257 5.02711 5.02906 -5.42203 -8.22546 1.45323e+06 
245 -0.02555 8.83446e-05 1477.49 273.263 5.02726 5.02923 -5.63947 -8.48041 1.45416e+06 
246 -0.02545 8.83446e-05 1477.49 273.27 5.02738 5.02944 -5.81364 -8.77025 1.45512e+06 
247 -0.02535 8.83445e-05 1477.48 273.276 5.02749 5.02958 -6.12876 -9.20054 1.45631e+06 
248 -0.02525 8.83441e-05 1477.48 273.283 5.02759 5.02981 -6.38323 -9.54966 1.45742e+06 
249 -0.02515 8.83446e-05 1477.48 273.289 5.02773 5.03 -6.63179 -9.89293 1.45854e+06 
250 -0.02505 8.83442e-05 1477.48 273.294 5.02779 5.03013 -6.78379 -10.2297 1.4595e+06 
267 -0.02335 8.83457e-05 1477.44 273.438 5.03053 5.03467 -12.39 -18.1439 1.48489e+06 
257 -0.02435 8.83456e-05 1477.47 273.338 5.02868 5.03147 -8.53455 -12.8612 1.46765e+06 
258 -0.02425 8.83453e-05 1477.47 273.35 5.0289 5.03195 -8.96213 -13.4531 1.46944e+06 
259 -0.02415 8.83458e-05 1477.46 273.358 5.02906 5.03224 -9.24956 -13.8767 1.47083e+06 
260 -0.02405 8.8346e-05 1477.46 273.37 5.02929 5.03262 -9.68474 -14.4946 1.47267e+06 
261 -0.02395 8.83463e-05 1477.46 273.379 5.02948 5.03295 -10.0635 -14.9517 1.47415e+06 
262 -0.02385 8.83461e-05 1477.46 273.391 5.02969 5.03332 -10.5995 -15.6497 1.47637e+06 
263 -0.02375 8.83463e-05 1477.45 273.399 5.02986 5.03362 -10.9373 -16.2202 1.47785e+06 
264 -0.02365 8.83463e-05 1477.45 273.405 5.02997 5.03379 -11.1288 -16.4755 1.47903e+06 
265 -0.02355 8.83468e-05 1477.45 273.416 5.03019 5.03412 -11.5462 -17.044 1.48099e+06 
266 -0.02345 8.83468e-05 1477.45 273.428 5.03042 5.0344 -12.0378 -17.6094 1.48308e+06 
268 -0.02325 8.83474e-05 1477.44 273.447 5.0308 5.03516 -12.708 -18.7748 1.48642e+06 
269 -0.02315 8.83475e-05 1477.44 273.46 5.03105 5.03571 -13.3175 -19.7156 1.48903e+06 
270 -0.02305 8.8347e-05 1477.43 273.473 5.03126 5.03607 -13.8044 -20.3638 1.49119e+06 
271 -0.02295 8.83484e-05 1477.43 273.494 5.03171 5.0368 -14.4489 -21.367 1.49406e+06 
272 -0.02285 8.83476e-05 1477.43 273.506 5.0319 5.03708 -15.1212 -22.2756 1.4967e+06 
273 -0.02275 8.83482e-05 1477.42 273.513 5.03205 5.03728 -15.4043 -22.7828 1.49848e+06 
274 -0.02265 8.83486e-05 1477.42 273.531 5.0324 5.03794 -15.9469 -23.6517 1.50108e+06 
275 -0.02255 8.83483e-05 1477.41 273.547 5.03268 5.03841 -16.7328 -24.7187 1.50429e+06 
251 -0.02495 8.83453e-05 1477.48 273.298 5.02793 5.0302 -6.92432 -10.4011 1.46023e+06 
252 -0.02485 8.8345e-05 1477.48 273.3 5.02797 5.03035 -7.15438 -10.7595 1.46134e+06 
253 -0.02475 8.83449e-05 1477.48 273.311 5.02816 5.03059 -7.43417 -11.0895 1.46252e+06 
254 -0.02465 8.83444e-05 1477.47 273.316 5.02822 5.03079 -7.73396 -11.5686 1.4639e+06 
255 -0.02455 8.83452e-05 1477.47 273.327 5.02846 5.03107 -8.04113 -11.944 1.46518e+06 
256 -0.02445 8.83454e-05 1477.47 273.33 5.02853 5.0312 -8.21783 -12.3023 1.4663e+06 
300 -0.02005 8.83571e-05 1477.26 274.168 5.04461 5.05898 -41.173 -60.8158 1.61431e+06 
289 -0.02115 8.83522e-05 1477.35 273.812 5.03778 5.04722 -27.1987 -40.2296 1.55222e+06 
290 -0.02105 8.83522e-05 1477.34 273.838 5.03827 5.04809 -28.2395 -41.7726 1.55684e+06 
291 -0.02095 8.83528e-05 1477.34 273.868 5.03884 5.04902 -29.3004 -43.2701 1.56147e+06 
292 -0.02085 8.83536e-05 1477.33 273.9 5.03948 5.05011 -30.66 -45.2274 1.56721e+06 
293 -0.02075 8.83538e-05 1477.32 273.93 5.04004 5.05108 -31.7774 -46.9136 1.57244e+06 
294 -0.02065 8.83539e-05 1477.31 273.96 5.04061 5.05214 -33.1212 -48.919 1.57815e+06 
295 -0.02055 8.83545e-05 1477.31 273.99 5.04119 5.05311 -34.0495 -50.4066 1.58281e+06 
296 -0.02045 8.83551e-05 1477.3 274.023 5.04184 5.05414 -35.5163 -52.3938 1.58889e+06 
297 -0.02035 8.83555e-05 1477.29 274.058 5.04249 5.05538 -36.898 -54.4681 1.59506e+06 
298 -0.02025 8.8356e-05 1477.28 274.102 5.04333 5.05679 -38.4761 -56.8837 1.60205e+06 
299 -0.02015 8.83571e-05 1477.27 274.138 5.04407 5.05807 -40.0561 -59.1074 1.60885e+06 
276 -0.02245 8.83493e-05 1477.42 273.558 5.03294 5.03881 -17.1753 -25.3647 1.50651e+06 
277 -0.02235 8.83483e-05 1477.41 273.581 5.0333 5.03942 -18.0341 -26.473 1.50999e+06 
278 -0.02225 8.83493e-05 1477.4 273.597 5.03366 5.04006 -18.6463 -27.4041 1.51291e+06 
279 -0.02215 8.83494e-05 1477.4 273.611 5.03393 5.04055 -19.2838 -28.4529 1.51588e+06 
280 -0.02205 8.83494e-05 1477.4 273.623 5.03415 5.04092 -19.6254 -28.9639 1.51789e+06 
281 -0.02195 8.83505e-05 1477.39 273.639 5.03451 5.04151 -20.3839 -30.0985 1.52136e+06 
282 -0.02185 8.83503e-05 1477.39 273.66 5.03488 5.04223 -21.2511 -31.3869 1.52507e+06 
283 -0.02175 8.83497e-05 1477.38 273.683 5.03527 5.04287 -22.0479 -32.5932 1.52874e+06 
284 -0.02165 8.83515e-05 1477.38 273.701 5.0357 5.0436 -22.7144 -33.6649 1.53207e+06 
285 -0.02155 8.83507e-05 1477.37 273.718 5.03596 5.04412 -23.4305 -34.7149 1.5354e+06 
286 -0.02145 8.83509e-05 1477.37 273.743 5.03645 5.04492 -24.4139 -36.2059 1.53968e+06 
287 -0.02135 8.83517e-05 1477.36 273.765 5.0369 5.04578 -25.3317 -37.4373 1.54369e+06 
288 -0.02125 8.83521e-05 1477.36 273.796 5.03748 5.04665 -26.442 -39.047 1.54856e+06 
301 -0.01995 8.83573e-05 1477.25 274.207 5.04535 5.06025 -42.8056 -63.1951 1.62164e+06 
321 -0.01795 8.83774e-05 1476.94 275.414 5.06871 5.10077 -90.3407 -133.796 1.83336e+06 
322 -0.01785 8.83777e-05 1476.92 275.496 5.07024 5.10328 -93.5136 -138.371 1.84761e+06 
323 -0.01775 8.83795e-05 1476.9 275.586 5.07199 5.10621 -96.9906 -143.533 1.8634e+06 
324 -0.01765 8.83806e-05 1476.87 275.681 5.07381 5.10939 -100.891 -149.247 1.88026e+06 
325 -0.01755 8.8382e-05 1476.85 275.781 5.07572 5.11272 -104.688 -155.013 1.89748e+06 
302 -0.01985 8.83581e-05 1477.24 274.249 5.04615 5.06169 -44.3511 -65.5156 1.62847e+06 
303 -0.01975 8.8359e-05 1477.23 274.284 5.04685 5.06292 -45.7834 -67.7849 1.63541e+06 
304 -0.01965 8.83595e-05 1477.22 274.327 5.04768 5.06448 -47.519 -70.4542 1.64316e+06 
305 -0.01955 8.83606e-05 1477.21 274.372 5.04856 5.06594 -49.1726 -72.9674 1.65084e+06 
306 -0.01945 8.83607e-05 1477.19 274.416 5.04938 5.06735 -50.9823 -75.6102 1.65877e+06 
307 -0.01935 8.83617e-05 1477.18 274.467 5.05038 5.06906 -52.952 -78.5128 1.66786e+06 
308 -0.01925 8.83623e-05 1477.17 274.52 5.0514 5.07077 -55.0513 -81.4221 1.67688e+06 
309 -0.01915 8.83636e-05 1477.16 274.575 5.05248 5.07267 -57.1955 -84.7211 1.68662e+06 
310 -0.01905 8.83646e-05 1477.14 274.629 5.05353 5.07455 -59.3536 -88.0227 1.69634e+06 
311 -0.01895 8.83661e-05 1477.12 274.696 5.05485 5.07673 -62.018 -91.7472 1.7076e+06 
312 -0.01885 8.83659e-05 1477.11 274.751 5.05585 5.07841 -64.1212 -94.948 1.71739e+06 
313 -0.01875 8.83676e-05 1477.1 274.813 5.05708 5.08045 -66.599 -98.5609 1.72816e+06 
314 -0.01865 8.83689e-05 1477.08 274.883 5.05844 5.08282 -69.3349 -102.546 1.74034e+06 
315 -0.01855 8.83696e-05 1477.06 274.941 5.05955 5.08472 -71.7228 -106.03 1.75112e+06 
316 -0.01845 8.83712e-05 1477.04 275.021 5.06112 5.08744 -74.7496 -110.407 1.76424e+06 
317 -0.01835 8.83712e-05 1477.03 275.086 5.06232 5.08956 -77.3931 -114.518 1.77596e+06 
318 -0.01825 8.83731e-05 1477.01 275.158 5.06374 5.09209 -80.1805 -118.838 1.78885e+06 
319 -0.01815 8.83743e-05 1476.98 275.239 5.06531 5.09488 -83.3482 -123.525 1.80262e+06 
320 -0.01805 8.83755e-05 1476.96 275.331 5.06706 5.09783 -86.981 -128.762 1.81837e+06 
334 -0.01665 8.83987e-05 1476.58 276.858 5.09651 5.14856 -147.085 -217.822 2.08573e+06 
326 -0.01745 8.83844e-05 1476.82 275.89 5.07786 5.11641 -108.917 -161.255 1.91597e+06 
327 -0.01735 8.83848e-05 1476.79 275.99 5.07972 5.11958 -112.967 -167.178 1.93383e+06 
328 -0.01725 8.83878e-05 1476.77 276.093 5.08179 5.12299 -116.964 -173.185 1.95218e+06 
329 -0.01715 8.83883e-05 1476.74 276.21 5.08399 5.12681 -121.673 -180.094 1.97305e+06 
330 -0.01705 8.83907e-05 1476.71 276.337 5.08646 5.13122 -126.59 -187.294 1.99438e+06 
331 -0.01695 8.83928e-05 1476.67 276.48 5.08921 5.13585 -132.21 -195.324 2.01822e+06 
332 -0.01685 8.8395e-05 1476.64 276.597 5.0915 5.13976 -136.818 -202.197 2.03937e+06 
333 -0.01675 8.83963e-05 1476.61 276.729 5.094 5.1441 -142.093 -210.1 2.06272e+06 
335 -0.01655 8.84006e-05 1476.54 276.992 5.09909 5.15307 -152.452 -225.941 2.1094e+06 
336 -0.01645 8.84022e-05 1476.51 277.139 5.10188 5.15789 -158.117 -234.486 2.13513e+06 
337 -0.01635 8.84047e-05 1476.46 277.29 5.10481 5.16294 -164.152 -243.345 2.1617e+06 
338 -0.01625 8.84076e-05 1476.42 277.459 5.10808 5.16868 -170.789 -253.39 2.19087e+06 