TITLE = "DSMC"
VARIABLES = "ID" "X" "rho" "v1" "Ttrans" "p" "p1" "q1" "mv1v1v1" "mvvv1v1"
ZONE T="Ma=1.6_inv", I=1200, J=1, K=1, F=POINT
1200 -0.03995 0.000162713 -267.383 437.431 14.8219 14.8203 0.059367 -0.50322 6749700.0
1199 -0.03985 0.00016271 -267.391 437.437 14.8217 14.8201 0.216693 -0.121547 6749900.0
1198 -0.03975 0.000162721 -267.371 437.444 14.823 14.8207 -0.0117962 -0.748963 6749840.0
1197 -0.03965 0.000162719 -267.372 437.435 14.8225 14.8208 -0.071352 -0.29146 6749740.0
1196 -0.03955 0.000162713 -267.381 437.437 14.8221 14.8202 0.0381506 -0.189426 6749650.0
1195 -0.03945 0.00016273 -267.357 437.388 14.8219 14.8214 -0.960225 -1.20058 6749710.0
1194 -0.03935 0.000162729 -267.357 437.395 14.8221 14.8216 -0.790196 -0.932935 6749910.0
1193 -0.03925 0.000162715 -267.378 437.436 14.8222 14.8205 -0.0438651 -0.260417 6749740.0
1192 -0.03915 0.000162722 -267.367 437.44 14.8229 14.8212 -0.151431 -0.599805 6749990.0
1191 -0.03905 0.000162738 -267.338 437.423 14.8238 14.8222 -0.7897 -1.40408 6750150.0
1190 -0.03895 0.000162743 -267.33 437.392 14.8232 14.8227 -1.34025 -1.53751 6750130.0
1189 -0.03885 0.000162731 -267.349 437.408 14.8227 14.8219 -0.923373 -0.893188 6750060.0
1188 -0.03875 0.000162725 -267.357 437.418 14.8225 14.8215 -0.548082 -0.643099 6750010.0
1187 -0.03865 0.000162704 -267.392 437.429 14.821 14.8198 0.0209743 0.407592 6749440.0
1186 -0.03855 0.000162729 -267.351 437.43 14.8232 14.8216 -0.446665 -0.760548 6749900.0
1185 -0.03845 0.000162727 -267.357 437.426 14.8229 14.8214 -0.290766 -0.285623 6749880.0
1184 -0.03835 0.000162713 -267.379 437.448 14.8223 14.8202 0.139083 0.104435 6749570.0
1183 -0.03825 0.000162712 -267.379 437.445 14.8222 14.8204 0.140427 -0.047111 6749710.0
1182 -0.03815 0.00016271 -267.383 437.446 14.8221 14.8201 0.150528 -0.15253 6749570.0
1181 -0.03805 0.000162718 -267.371 437.433 14.8223 14.8207 -0.197891 -0.485828 6749680.0
1180 -0.03795 0.000162721 -267.368 437.466 14.8237 14.8209 0.164549 -0.601571 6750050.0
1179 -0.03785 0.000162707 -267.39 437.416 14.8208 14.8198 -0.200491 0.0936767 6749210.0
1178 -0.03775 0.000162714 -267.377 437.422 14.8217 14.8203 -0.200613 -0.156972 6749430.0
1177 -0.03765 0.000162738 -267.336 437.42 14.8238 14.8222 -0.865407 -1.39327 6749900.0
1176 -0.03755 0.000162723 -267.362 437.449 14.8233 14.8213 -0.105214 -0.404075 6749920.0
1175 -0.03745 0.000162726 -267.356 437.458 14.8239 14.8213 -0.0245849 -0.712573 6750010.0
1174 -0.03735 0.000162739 -267.333 437.416 14.8237 14.8222 -0.871363 -1.75669 6749840.0
1173 -0.03725 0.000162732 -267.346 437.412 14.8229 14.8221 -0.670008 -1.23258 6749900.0
1172 -0.03715 0.000162733 -267.345 437.409 14.8229 14.8219 -0.829775 -1.63471 6749860.0
1171 -0.03705 0.000162725 -267.358 437.396 14.8217 14.8214 -0.818749 -1.29164 6749570.0
1170 -0.03695 0.000162726 -267.353 437.397 14.8219 14.8216 -0.949861 -1.21847 6749600.0
1169 -0.03685 0.00016272 -267.363 437.386 14.821 14.8206 -0.942196 -1.08959 6749160.0
1168 -0.03675 0.000162722 -267.363 437.398 14.8215 14.8209 -0.768697 -1.00108 6749540.0
1167 -0.03665 0.000162717 -267.371 437.376 14.8203 14.8203 -0.903392 -0.579185 6749140.0
1166 -0.03655 0.000162718 -267.37 437.403 14.8214 14.8206 -0.590659 -0.631385 6749410.0
1165 -0.03645 0.000162726 -267.355 437.441 14.8233 14.8211 -0.283111 -1.08119 6749740.0
1164 -0.03635 0.000162732 -267.345 437.435 14.8237 14.8213 -0.417064 -1.20883 6749810.0
1163 -0.03625 0.000162732 -267.347 437.427 14.8234 14.8215 -0.637128 -0.780176 6749850.0
1162 -0.03615 0.000162743 -267.327 437.421 14.8242 14.8222 -0.957685 -1.26772 6750010.0
1161 -0.03605 0.000162725 -267.357 437.44 14.8232 14.8211 -0.234292 -0.465088 6749890.0
1160 -0.03595 0.000162714 -267.377 437.425 14.8217 14.82 -0.167394 0.00085381 6749440.0
1159 -0.03585 0.000162697 -267.404 437.419 14.82 14.8187 0.0814808 0.705324 6748900.0
1158 -0.03575 0.000162697 -267.403 437.412 14.8197 14.8184 0.124821 0.684621 6748900.0
1157 -0.03565 0.000162696 -267.405 437.416 14.8197 14.8187 0.152188 0.740952 6749160.0
1156 -0.03555 0.000162699 -267.401 437.402 14.8196 14.8188 -0.0655877 0.367173 6749010.0
1155 -0.03545 0.000162718 -267.368 437.415 14.8218 14.82 -0.328887 -0.653249 6749420.0
1154 -0.03535 0.00016272 -267.366 437.403 14.8215 14.8204 -0.587818 -0.75175 6749500.0
1153 -0.03525 0.000162699 -267.401 437.453 14.8213 14.8189 0.591012 0.284609 6749360.0
1152 -0.03515 0.000162711 -267.381 437.481 14.8233 14.8196 0.60715 -0.436505 6749750.0
1151 -0.03505 0.000162713 -267.378 437.461 14.8228 14.8198 0.278707 -0.608561 6749560.0
1150 -0.03495 0.000162698 -267.402 437.454 14.8213 14.8188 0.617693 -0.0267366 6749240.0
1149 -0.03485 0.00016271 -267.384 437.42 14.8212 14.8196 -0.149624 -0.54025 6749150.0
1148 -0.03475 0.000162689 -267.419 437.453 14.8204 14.8181 0.859567 0.749975 6749030.0
1147 -0.03465 0.000162694 -267.409 437.438 14.8203 14.8187 0.460063 0.614295 6749100.0
1146 -0.03455 0.00016272 -267.366 437.439 14.8228 14.8205 -0.200376 -0.771453 6749500.0
1145 -0.03445 0.000162724 -267.359 437.447 14.8234 14.8206 -0.146304 -1.11625 6749580.0
1144 -0.03435 0.000162707 -267.387 437.407 14.8205 14.8195 -0.200048 -0.175544 6749080.0
1143 -0.03425 0.000162711 -267.38 437.382 14.82 14.8197 -0.68504 -0.722385 6748940.0
1142 -0.03415 0.000162693 -267.409 437.382 14.8184 14.8184 -0.2225 0.239143 6748430.0
1141 -0.03405 0.000162708 -267.384 437.424 14.8211 14.8198 -0.0493581 -0.519015 6749390.0
1140 -0.03395 0.0001627 -267.396 437.421 14.8203 14.8189 0.0518062 0.0206545 6748870.0
1139 -0.03385 0.000162699 -267.399 437.438 14.8208 14.819 0.288505 0.2057 6748950.0
1138 -0.03375 0.000162703 -267.39 437.428 14.8208 14.8192 0.0726211 -0.138709 6749100.0
1137 -0.03365 0.000162706 -267.388 437.432 14.8212 14.8195 0.0668429 -0.242532 6749200.0
1136 -0.03355 0.0001627 -267.397 437.409 14.8199 14.8186 -0.0620061 -0.141632 6748590.0
1135 -0.03345 0.000162683 -267.424 437.411 14.8185 14.8178 0.385515 1.00707 6748610.0
1134 -0.03335 0.000162692 -267.412 437.433 14.82 14.8186 0.496868 0.673924 6749290.0
1133 -0.03325 0.000162694 -267.406 437.428 14.82 14.8186 0.265187 0.376538 6749260.0
1132 -0.03315 0.000162694 -267.407 437.413 14.8195 14.8187 0.126768 0.402923 6749240.0
1131 -0.03305 0.000162691 -267.409 437.435 14.8199 14.8182 0.492407 0.393471 6749120.0
1130 -0.03295 0.000162699 -267.396 437.437 14.8207 14.8191 0.222453 0.168543 6749490.0
1129 -0.03285 0.000162708 -267.383 437.459 14.8223 14.8198 0.449242 -0.00443114 6750040.0
1128 -0.03275 0.000162703 -267.392 437.438 14.8212 14.819 0.170756 0.0424737 6749340.0
1127 -0.03265 0.000162698 -267.397 437.443 14.8209 14.8191 0.35691 0.321162 6749540.0
1126 -0.03255 0.000162689 -267.416 437.459 14.8206 14.8183 0.825901 0.612504 6749430.0
1125 -0.03245 0.000162697 -267.4 437.439 14.8206 14.8187 0.458002 0.126331 6749380.0
1124 -0.03235 0.000162704 -267.392 437.419 14.8206 14.8193 0.0882321 -0.261764 6749420.0
1123 -0.03225 0.000162688 -267.419 437.439 14.8198 14.8182 0.660158 0.434222 6749240.0
1122 -0.03215 0.000162696 -267.408 437.404 14.8193 14.8184 0.0181624 0.0814822 6748800.0
1121 -0.03205 0.00016271 -267.386 437.412 14.8209 14.8196 -0.0971773 -0.56111 6749290.0
1120 -0.03195 0.000162715 -267.379 437.405 14.8211 14.8204 -0.344507 -0.925085 6749550.0
1119 -0.03185 0.000162713 -267.384 437.425 14.8216 14.8199 -0.103532 -0.847786 6749480.0
1118 -0.03175 0.000162705 -267.394 437.416 14.8206 14.8193 -0.00544027 -0.593701 6749180.0
1117 -0.03165 0.000162692 -267.416 437.42 14.8196 14.8187 0.347191 0.298884 6749210.0
1116 -0.03155 0.000162717 -267.377 437.365 14.82 14.82 -0.950325 -1.15847 6749050.0
1115 -0.03145 0.000162707 -267.392 437.416 14.8208 14.8196 -0.0479726 -0.339256 6749370.0
1114 -0.03135 0.000162695 -267.415 437.438 14.8204 14.8186 0.429595 0.137158 6749070.0
1113 -0.03125 0.000162694 -267.416 437.385 14.8185 14.8185 -0.151423 0.384227 6748630.0
1112 -0.03115 0.000162699 -267.406 437.39 14.8192 14.8188 -0.240838 0.223363 6748710.0
1111 -0.03105 0.000162709 -267.391 437.4 14.8204 14.8197 -0.337128 -0.365809 6749070.0
1110 -0.03095 0.000162726 -267.362 437.427 14.8228 14.8208 -0.395196 -1.15715 6749650.0
1109 -0.03085 0.000162702 -267.403 437.423 14.8205 14.8191 0.0788119 -0.0863455 6749120.0
1108 -0.03075 0.000162719 -267.371 437.415 14.8218 14.8202 -0.438073 -1.07184 6749390.0
1107 -0.03065 0.000162721 -267.368 437.394 14.8213 14.8203 -0.67001 -1.13003 6749360.0
1106 -0.03055 0.000162702 -267.399 437.404 14.8199 14.8189 -0.0854644 0.00962995 6748930.0
1105 -0.03045 0.000162701 -267.4 437.408 14.82 14.8192 -0.106371 -0.177782 6749140.0
1104 -0.03035 0.00016272 -267.368 437.413 14.8218 14.8205 -0.613866 -1.20257 6749450.0
1103 -0.03025 0.000162693 -267.412 437.398 14.8188 14.8186 0.00323352 0.208789 6748740.0
1102 -0.03015 0.000162723 -267.361 437.403 14.8217 14.8212 -0.822015 -1.30242 6749470.0
1101 -0.03005 0.000162731 -267.349 437.407 14.8226 14.8214 -0.917155 -1.85997 6749420.0
1100 -0.02995 0.000162732 -267.35 437.406 14.8227 14.8215 -0.909464 -1.96065 6749520.0
1099 -0.02985 0.000162715 -267.374 437.442 14.8224 14.8204 -0.0477645 -1.12455 6749410.0
1098 -0.02975 0.000162717 -267.372 437.384 14.8206 14.8203 -0.79347 -1.34713 6748960.0
1097 -0.02965 0.000162718 -267.367 437.41 14.8215 14.8207 -0.469974 -1.37676 6749440.0
1096 -0.02955 0.000162714 -267.376 437.411 14.8213 14.8204 -0.377999 -1.37477 6749470.0
1095 -0.02945 0.000162718 -267.368 437.429 14.8222 14.8208 -0.322518 -1.47046 6749760.0
1094 -0.02935 0.000162714 -267.373 437.411 14.8213 14.8206 -0.537172 -1.31669 6749510.0
1093 -0.02925 0.000162719 -267.368 437.411 14.8217 14.8208 -0.414818 -1.2674 6749460.0
1092 -0.02915 0.00016273 -267.347 437.393 14.8221 14.8216 -1.00477 -1.78442 6749520.0
1091 -0.02905 0.000162702 -267.393 437.403 14.8199 14.8197 -0.234308 -0.359978 6749040.0
1090 -0.02895 0.000162718 -267.367 437.399 14.8212 14.8206 -0.626581 -1.16989 6749290.0
1089 -0.02885 0.000162714 -267.373 437.403 14.821 14.8204 -0.524355 -1.17013 6749230.0
1088 -0.02875 0.000162713 -267.376 437.407 14.821 14.82 -0.43255 -1.30491 6748910.0
1087 -0.02865 0.000162711 -267.379 437.393 14.8203 14.8199 -0.622554 -1.35782 6748760.0
1086 -0.02855 0.000162683 -267.423 437.433 14.8192 14.8177 0.658115 0.144188 6748420.0
1085 -0.02845 0.000162686 -267.419 437.442 14.8198 14.8181 0.652554 -0.121497 6748700.0
1084 -0.02835 0.000162708 -267.382 437.424 14.8212 14.8196 -0.216051 -1.1969 6749070.0
1083 -0.02825 0.000162702 -267.392 437.388 14.8194 14.8192 -0.456395 -0.8356 6748840.0
1082 -0.02815 0.000162704 -267.389 437.382 14.8194 14.8194 -0.627823 -0.894399 6748820.0
1081 -0.02805 0.000162702 -267.395 437.412 14.8201 14.8193 -0.0645623 -0.760113 6749230.0
1080 -0.02795 0.000162682 -267.428 437.417 14.8185 14.8178 0.435676 0.179763 6748910.0
1079 -0.02785 0.000162675 -267.441 437.39 14.8169 14.8173 0.25966 0.447291 6748510.0
1078 -0.02775 0.000162681 -267.431 437.395 14.8177 14.8176 0.187219 0.343951 6748460.0
1077 -0.02765 0.000162672 -267.446 437.397 14.817 14.8168 0.445718 0.797557 6748280.0
1076 -0.02755 0.000162681 -267.432 437.393 14.8176 14.8175 0.224908 0.0557327 6748490.0
1075 -0.02745 0.000162668 -267.452 437.37 14.8157 14.8165 0.19808 0.650911 6747990.0
1074 -0.02735 0.000162666 -267.454 437.382 14.8159 14.8165 0.349832 0.643518 6748070.0
1073 -0.02725 0.000162664 -267.455 437.384 14.8158 14.8161 0.448244 0.842484 6747550.0
1072 -0.02715 0.000162673 -267.444 437.414 14.8176 14.817 0.595427 0.467029 6748140.0
1071 -0.02705 0.000162667 -267.452 437.39 14.8162 14.8166 0.366324 0.94478 6747840.0
1070 -0.02695 0.000162682 -267.428 437.421 14.8186 14.8174 0.6473 0.432191 6748350.0
1069 -0.02685 0.000162675 -267.439 437.43 14.8183 14.8172 0.891539 0.877671 6748570.0
1068 -0.02675 0.000162687 -267.418 437.444 14.8199 14.8179 0.718125 0.425351 6748720.0
1067 -0.02665 0.000162699 -267.399 437.42 14.8201 14.8187 0.162074 -0.234652 6748770.0
1066 -0.02655 0.000162696 -267.401 437.386 14.8188 14.8186 -0.196306 -0.0334567 6748440.0
1065 -0.02645 0.000162706 -267.389 437.397 14.82 14.8193 -0.287704 -0.706395 6748910.0
1064 -0.02635 0.000162695 -267.407 437.448 14.8207 14.8184 0.672455 -0.124629 6749070.0
1063 -0.02625 0.000162692 -267.414 437.441 14.8202 14.8182 0.622692 0.0279481 6748850.0
1062 -0.02615 0.000162698 -267.4 437.43 14.8204 14.8188 0.40808 -0.0117971 6748900.0
1061 -0.02605 0.000162687 -267.422 437.4 14.8184 14.8178 0.273356 0.664415 6748480.0
1060 -0.02595 0.000162697 -267.405 437.419 14.8199 14.8185 0.282492 0.37153 6748840.0
1059 -0.02585 0.000162689 -267.421 437.393 14.8183 14.818 0.128842 1.00303 6748420.0
1058 -0.02575 0.000162701 -267.399 437.391 14.8194 14.8185 -0.145931 0.273163 6748380.0
1057 -0.02565 0.000162701 -267.402 437.393 14.8194 14.8185 -0.126187 0.231904 6748530.0
1056 -0.02555 0.000162696 -267.409 437.405 14.8194 14.8181 0.159308 0.551164 6748530.0
1055 -0.02545 0.000162699 -267.402 437.402 14.8196 14.8183 -0.0492859 0.145533 6748470.0
1054 -0.02535 0.00016269 -267.418 437.404 14.8188 14.8179 0.189952 0.360556 6748410.0
1053 -0.02525 0.000162693 -267.412 437.409 14.8193 14.8181 0.202936 0.216841 6748570.0
1052 -0.02515 0.000162695 -267.409 437.425 14.8199 14.8182 0.352519 0.0906451 6748590.0
1051 -0.02505 0.000162681 -267.432 437.427 14.8187 14.8171 0.725413 0.789995 6748420.0
1050 -0.02495 0.00016268 -267.43 437.419 14.8184 14.8172 0.596225 0.851375 6748420.0
1049 -0.02485 0.000162685 -267.423 437.428 14.8192 14.8175 0.512305 0.466622 6748400.0
1048 -0.02475 0.000162675 -267.439 437.451 14.819 14.8168 1.2119 0.93119 6748340.0
1047 -0.02465 0.000162681 -267.431 437.421 14.8186 14.817 0.663462 0.535915 6748070.0
1046 -0.02455 0.000162683 -267.427 437.443 14.8195 14.8172 0.750518 0.401101 6748170.0
1045 -0.02445 0.000162691 -267.414 437.435 14.82 14.8178 0.501805 0.0205355 6748370.0
1044 -0.02435 0.000162693 -267.411 437.441 14.8203 14.8179 0.591434 -0.106125 6748470.0
1043 -0.02425 0.000162689 -267.42 437.39 14.8182 14.8176 0.0143315 -0.0323898 6747930.0
1042 -0.02415 0.000162678 -267.437 437.358 14.8162 14.8167 -0.173577 0.314182 6747480.0
1041 -0.02405 0.000162669 -267.454 437.388 14.8163 14.816 0.417572 0.743395 6747400.0
1040 -0.02395 0.000162688 -267.423 437.387 14.818 14.8175 0.090647 -0.127955 6747780.0
1039 -0.02385 0.000162693 -267.412 437.403 14.8191 14.8178 0.101906 -0.351854 6748030.0
1038 -0.02375 0.000162693 -267.414 437.37 14.8179 14.8178 -0.319418 -0.39395 6747700.0
1037 -0.02365 0.000162682 -267.432 437.394 14.8177 14.817 0.138333 0.168074 6747560.0
1036 -0.02355 0.000162676 -267.443 437.39 14.817 14.8165 0.350669 0.698015 6747410.0
1035 -0.02345 0.000162678 -267.44 437.355 14.8161 14.8167 -0.115778 0.723518 6747170.0
1034 -0.02335 0.000162682 -267.436 437.382 14.8173 14.817 0.0632935 0.464691 6747410.0
1033 -0.02325 0.000162712 -267.386 437.386 14.8202 14.819 -0.517281 -1.02274 6747940.0
1032 -0.02315 0.000162701 -267.404 437.384 14.8191 14.8181 -0.363304 -0.738693 6747510.0
1031 -0.02305 0.000162723 -267.372 437.38 14.821 14.8198 -0.92657 -1.80629 6748120.0
1030 -0.02295 0.000162698 -267.411 437.377 14.8186 14.8183 -0.396912 -0.534892 6747710.0
1029 -0.02285 0.000162684 -267.432 437.361 14.8168 14.8171 -0.357475 -0.170546 6747090.0
1028 -0.02275 0.000162687 -267.429 437.372 14.8174 14.8172 -0.189161 -0.271262 6747230.0
1027 -0.02265 0.000162699 -267.408 437.352 14.8179 14.8184 -0.817904 -1.02361 6747340.0
1026 -0.02255 0.000162715 -267.386 437.358 14.8195 14.8193 -1.03813 -1.42602 6747630.0
1025 -0.02245 0.000162699 -267.412 437.355 14.818 14.8181 -0.62159 -0.451315 6747340.0
1024 -0.02235 0.000162699 -267.413 437.372 14.8185 14.8182 -0.426001 -0.434635 6747520.0
1023 -0.02225 0.000162674 -267.453 437.414 14.8177 14.8167 0.702255 0.750268 6747590.0
1022 -0.02215 0.000162695 -267.42 437.389 14.8188 14.8177 -0.214406 -0.549504 6747670.0
1021 -0.02205 0.000162679 -267.445 437.378 14.8169 14.8167 0.0904237 0.314275 6747410.0
1020 -0.02195 0.000162675 -267.45 437.364 14.8161 14.8166 -0.0503269 0.439003 6747300.0
1019 -0.02185 0.000162673 -267.454 437.4 14.8171 14.8164 0.527431 0.440922 6747370.0
1018 -0.02175 0.00016269 -267.426 437.385 14.8182 14.8179 -0.0578382 -0.415446 6747770.0
1017 -0.02165 0.000162682 -267.438 437.37 14.817 14.817 -0.0911539 -0.0416624 6747480.0
1016 -0.02155 0.000162689 -267.429 437.364 14.8173 14.8175 -0.396977 -0.536327 6747760.0
1015 -0.02145 0.000162702 -267.407 437.354 14.8182 14.8185 -0.798107 -1.11321 6747980.0
1014 -0.02135 0.000162694 -267.419 437.359 14.8176 14.8178 -0.488599 -0.422677 6747990.0
1013 -0.02125 0.000162678 -267.446 437.377 14.8168 14.8168 0.141395 0.326422 6748000.0
1012 -0.02115 0.000162676 -267.45 437.367 14.8163 14.8165 0.259277 0.645302 6747890.0
1011 -0.02105 0.000162669 -267.463 437.391 14.8165 14.8159 0.720769 1.00866 6747700.0
1010 -0.02095 0.000162693 -267.422 437.377 14.8182 14.8176 -0.231566 -0.552177 6748010.0
1009 -0.02085 0.000162693 -267.424 437.396 14.8188 14.8178 0.22317 -0.274476 6748240.0
1008 -0.02075 0.000162688 -267.43 437.434 14.8197 14.8173 0.642507 -0.0928841 6748120.0
1007 -0.02065 0.000162672 -267.458 437.422 14.8178 14.8162 1.01183 0.728442 6747660.0
1006 -0.02055 0.000162672 -267.455 437.403 14.8172 14.8162 0.697862 0.824023 6747450.0
1005 -0.02045 0.000162665 -267.47 437.385 14.8159 14.8156 0.529465 1.16576 6747160.0
1004 -0.02035 0.000162681 -267.442 437.39 14.8175 14.8171 0.216245 0.337132 6747820.0
1003 -0.02025 0.000162679 -267.44 437.418 14.8183 14.8169 0.576313 0.210772 6747960.0
1002 -0.02015 0.000162685 -267.433 437.416 14.8188 14.8173 0.3872 0.0483583 6748050.0
1001 -0.02005 0.000162696 -267.417 437.405 14.8194 14.818 0.0640381 -0.620872 6748040.0
1000 -0.01995 0.000162675 -267.448 437.408 14.8176 14.8169 0.564823 0.405419 6747800.0
999 -0.01985 0.000162683 -267.435 437.401 14.818 14.8171 0.179092 -0.319433 6747680.0
998 -0.01975 0.00016268 -267.438 437.397 14.8177 14.8171 0.330882 -0.031481 6747640.0
997 -0.01965 0.00016269 -267.423 437.385 14.8181 14.8176 -0.0572674 -0.659788 6747540.0
996 -0.01955 0.00016268 -267.44 437.401 14.8178 14.8171 0.360106 -0.389605 6747660.0
995 -0.01945 0.000162686 -267.427 437.369 14.8173 14.8172 -0.336409 -0.746263 6747330.0
994 -0.01935 0.000162685 -267.429 437.437 14.8195 14.8171 0.68725 -0.502527 6747850.0
993 -0.01925 0.00016269 -267.421 437.397 14.8186 14.8175 0.0588187 -0.589731 6747560.0
992 -0.01915 0.000162672 -267.451 437.397 14.8169 14.8161 0.412363 0.205994 6747110.0
991 -0.01905 0.000162669 -267.454 437.358 14.8153 14.8159 0.042444 0.431258 6746780.0
990 -0.01895 0.000162651 -267.483 437.374 14.8143 14.8146 0.712781 1.25987 6746530.0
989 -0.01885 0.000162665 -267.458 437.353 14.8148 14.8156 -0.0900008 0.473897 6746400.0
988 -0.01875 0.000162661 -267.467 437.33 14.8137 14.8153 -0.24444 0.677653 6746060.0
987 -0.01865 0.000162685 -267.429 437.332 14.8159 14.8171 -0.744649 -0.374949 6746650.0
986 -0.01855 0.000162682 -267.435 437.374 14.8171 14.8165 -0.129033 -0.343843 6746690.0
985 -0.01845 0.00016267 -267.455 437.381 14.8162 14.8159 0.220048 0.0792439 6746550.0
984 -0.01835 0.000162652 -267.484 437.384 14.8147 14.8146 0.77778 0.95279 6746510.0
983 -0.01825 0.000162652 -267.484 437.376 14.8144 14.8147 0.676312 1.11468 6746250.0
982 -0.01815 0.00016265 -267.49 437.377 14.8142 14.8143 0.829552 1.4195 6746110.0
981 -0.01805 0.000162667 -267.46 437.359 14.8152 14.8157 0.141711 0.606315 6746350.0
980 -0.01795 0.000162662 -267.471 437.374 14.8153 14.8154 0.364949 0.480121 6746420.0
979 -0.01785 0.000162644 -267.5 437.398 14.8144 14.8139 1.13451 1.29716 6746110.0
978 -0.01775 0.000162657 -267.478 437.401 14.8157 14.815 0.859061 0.552412 6746580.0
977 -0.01765 0.000162661 -267.47 437.368 14.8149 14.8152 0.30341 0.30395 6746430.0
976 -0.01755 0.000162667 -267.459 437.378 14.8158 14.8157 0.243443 -0.211515 6746570.0
975 -0.01745 0.000162666 -267.46 437.358 14.8151 14.8157 -0.0647967 -0.148497 6746350.0
974 -0.01735 0.000162656 -267.475 437.381 14.8149 14.815 0.527724 0.615752 6746510.0
973 -0.01725 0.000162632 -267.517 437.36 14.812 14.8131 0.901591 2.13237 6745640.0
972 -0.01715 0.000162644 -267.496 437.369 14.8135 14.8142 0.696237 1.54774 6746090.0
971 -0.01705 0.000162645 -267.494 437.367 14.8135 14.8142 0.72134 1.35103 6745950.0
970 -0.01695 0.000162645 -267.494 437.378 14.8139 14.8139 0.872493 1.41565 6745800.0
969 -0.01685 0.000162647 -267.491 437.38 14.8141 14.8144 0.81928 1.45281 6745860.0
968 -0.01675 0.000162667 -267.458 437.426 14.8175 14.8156 0.917611 0.540029 6746570.0
967 -0.01665 0.000162666 -267.458 437.406 14.8167 14.8158 0.699437 0.721882 6746420.0
966 -0.01655 0.000162659 -267.47 437.377 14.8151 14.8153 0.378408 1.02651 6745940.0
965 -0.01645 0.000162659 -267.468 437.4 14.8158 14.8153 0.840032 0.912927 6746200.0
964 -0.01635 0.000162653 -267.48 437.366 14.8142 14.8149 0.552017 1.07965 6745780.0
963 -0.01625 0.00016265 -267.485 437.387 14.8146 14.8147 0.812561 0.848567 6745870.0
962 -0.01615 0.000162655 -267.476 437.383 14.8149 14.8149 0.634488 0.330715 6745560.0
961 -0.01605 0.000162647 -267.489 437.366 14.8137 14.8143 0.561062 0.468684 6745310.0
960 -0.01595 0.00016265 -267.485 437.392 14.8147 14.8146 0.86361 0.521549 6745510.0
959 -0.01585 0.000162635 -267.507 437.374 14.8127 14.8137 0.908621 1.18135 6745020.0
958 -0.01575 0.000162632 -267.511 437.387 14.813 14.8135 1.22964 1.23628 6744850.0
957 -0.01565 0.000162635 -267.507 437.383 14.8131 14.8137 1.10399 1.43727 6744730.0
956 -0.01555 0.000162627 -267.518 437.405 14.8131 14.8128 1.53713 1.51684 6744650.0
955 -0.01545 0.000162648 -267.486 437.411 14.8152 14.8147 1.09047 0.818912 6745320.0
954 -0.01535 0.000162635 -267.509 437.404 14.8138 14.8137 1.30543 1.58511 6744990.0
953 -0.01525 0.000162629 -267.515 437.401 14.8131 14.8133 1.41761 1.81038 6744780.0
952 -0.01515 0.000162623 -267.527 437.4 14.8125 14.813 1.55798 2.06675 6744620.0
951 -0.01505 0.000162628 -267.517 437.366 14.8118 14.8132 0.873089 1.43516 6744320.0
950 -0.01495 0.000162623 -267.524 437.356 14.8111 14.813 0.876113 1.4384 6744120.0
949 -0.01485 0.000162602 -267.557 437.354 14.8091 14.8118 1.34407 2.19438 6743750.0
948 -0.01475 0.0001626 -267.561 437.344 14.8086 14.8116 1.27326 2.41531 6743420.0
947 -0.01465 0.0001626 -267.561 437.356 14.809 14.8115 1.42863 2.39336 6743470.0
946 -0.01455 0.000162609 -267.545 437.366 14.8101 14.8121 1.33507 1.82956 6743670.0
945 -0.01445 0.000162612 -267.543 437.368 14.8105 14.8124 1.20474 1.50236 6743820.0
944 -0.01435 0.000162608 -267.549 437.358 14.8097 14.812 1.28119 1.59134 6743480.0
943 -0.01425 0.000162587 -267.582 437.364 14.8081 14.8105 1.82701 2.39369 6742950.0
942 -0.01415 0.000162594 -267.572 437.348 14.8082 14.8111 1.47921 2.11548 6742760.0
941 -0.01405 0.000162599 -267.565 437.345 14.8085 14.811 1.30276 1.77042 6742420.0
940 -0.01395 0.000162611 -267.549 437.341 14.8095 14.8118 1.00383 0.865007 6742390.0
939 -0.01385 0.000162598 -267.567 437.349 14.8086 14.8112 1.47291 1.47105 6742210.0
938 -0.01375 0.000162583 -267.591 437.362 14.8076 14.81 2.0227 2.08711 6741800.0
937 -0.01365 0.00016257 -267.614 437.351 14.8061 14.8093 2.0765 2.35077 6741420.0
936 -0.01355 0.000162567 -267.616 437.363 14.8062 14.809 2.33432 2.20868 6741150.0
935 -0.01345 0.000162561 -267.627 437.336 14.8048 14.8085 2.13596 2.28845 6740610.0
934 -0.01335 0.000162572 -267.609 437.345 14.8061 14.8092 2.0019 1.49994 6740760.0
933 -0.01325 0.000162562 -267.627 437.347 14.8052 14.8088 2.23214 1.90869 6740500.0
932 -0.01315 0.000162558 -267.633 437.347 14.8049 14.8083 2.37543 1.95102 6740410.0
931 -0.01305 0.000162531 -267.678 437.311 14.8011 14.8065 2.55217 2.86519 6739540.0
930 -0.01295 0.000162511 -267.712 437.316 14.7996 14.805 3.1762 3.50254 6739030.0
929 -0.01285 0.000162494 -267.74 437.317 14.798 14.8039 3.57744 3.91522 6738480.0
928 -0.01275 0.000162481 -267.761 437.297 14.7962 14.803 3.6906 4.33327 6737880.0
927 -0.01265 0.000162471 -267.781 437.335 14.7965 14.8022 4.40212 4.68808 6737630.0
926 -0.01255 0.000162455 -267.805 437.326 14.7948 14.8008 4.71278 4.96377 6736900.0
925 -0.01245 0.000162451 -267.814 437.315 14.794 14.8007 4.62581 4.9183 6736650.0
924 -0.01235 0.000162452 -267.809 437.315 14.7941 14.8007 4.54449 4.55679 6736220.0
923 -0.01225 0.000162443 -267.826 437.298 14.7927 14.8004 4.52055 4.76052 6735610.0
922 -0.01215 0.000162444 -267.824 437.312 14.7933 14.8006 4.58899 4.3274 6735530.0
921 -0.01205 0.000162435 -267.838 437.272 14.7911 14.7998 4.43787 4.58163 6734850.0
920 -0.01195 0.000162401 -267.893 437.293 14.7887 14.7974 5.42119 5.86296 6734060.0
919 -0.01185 0.0001624 -267.896 437.322 14.7896 14.7974 5.87884 5.96502 6733900.0
918 -0.01175 0.000162373 -267.938 437.315 14.7869 14.7955 6.40992 7.11423 6733210.0
917 -0.01165 0.000162374 -267.938 437.322 14.7873 14.7957 6.46 6.65625 6732980.0
916 -0.01155 0.000162377 -267.931 437.29 14.7864 14.7957 5.99213 6.00061 6732380.0
915 -0.01145 0.000162367 -267.946 437.29 14.7855 14.7952 6.18005 6.04752 6731830.0
914 -0.01135 0.000162344 -267.987 437.294 14.7836 14.7936 6.79867 6.81585 6730960.0
913 -0.01125 0.000162348 -267.979 437.285 14.7836 14.7938 6.53121 6.01434 6730750.0
912 -0.01115 0.000162331 -268.008 437.247 14.7808 14.7925 6.50067 6.38916 6729790.0
911 -0.01105 0.00016232 -268.024 437.251 14.7799 14.792 6.74728 6.36864 6729130.0
910 -0.01095 0.000162295 -268.067 437.256 14.7778 14.79 7.40049 7.01456 6727850.0
909 -0.01085 0.000162275 -268.1 437.214 14.7745 14.7887 7.43328 7.4891 6726760.0
908 -0.01075 0.000162258 -268.128 437.197 14.7724 14.7871 7.59424 7.57308 6725790.0
907 -0.01065 0.000162232 -268.17 437.192 14.7699 14.7853 8.27755 8.23461 6724860.0
906 -0.01055 0.00016222 -268.189 437.201 14.7691 14.7847 8.49272 7.89125 6724080.0
905 -0.01045 0.000162195 -268.229 437.193 14.7666 14.7832 8.98675 8.55924 6723130.0
904 -0.01035 0.000162175 -268.263 437.169 14.764 14.7817 9.15198 8.98627 6721900.0
903 -0.01025 0.000162142 -268.317 437.172 14.7611 14.779 10.0403 10.0062 6720560.0
902 -0.01015 0.000162124 -268.347 437.124 14.7578 14.7779 9.84865 9.87773 6719400.0
901 -0.01005 0.000162092 -268.401 437.151 14.7559 14.7755 10.9488 10.6418 6718250.0
900 -0.00995 0.000162077 -268.428 437.149 14.7543 14.7742 11.2785 10.5994 6717140.0
899 -0.00985 0.000162045 -268.481 437.122 14.7505 14.7717 11.7394 11.1247 6715570.0
898 -0.00975 0.00016203 -268.504 437.096 14.7483 14.7708 11.7537 10.7136 6714410.0
897 -0.00965 0.00016199 -268.572 437.063 14.7435 14.7679 12.3295 11.8404 6712640.0
896 -0.00955 0.000161941 -268.652 437.066 14.7392 14.7645 13.4902 13.1743 6710890.0
895 -0.00945 0.000161928 -268.674 437.034 14.7369 14.7634 13.4227 12.7301 6709450.0
894 -0.00935 0.000161913 -268.698 437.029 14.7354 14.7625 13.8035 12.3817 6708440.0
893 -0.00925 0.000161894 -268.727 436.966 14.7315 14.7609 13.4026 11.7706 6706630.0
892 -0.00915 0.000161839 -268.82 436.927 14.7253 14.7569 14.1001 13.1201 6704290.0
891 -0.00905 0.000161794 -268.896 436.887 14.7198 14.7536 14.6759 13.8281 6702120.0
890 -0.00895 0.00016174 -268.986 436.852 14.7137 14.7497 15.4938 15.0118 6699860.0
889 -0.00885 0.000161694 -269.061 436.852 14.7095 14.7463 16.6984 15.9051 6698110.0
888 -0.00875 0.000161664 -269.116 436.858 14.707 14.7443 17.5154 16.1348 6696610.0
887 -0.00865 0.000161614 -269.196 436.848 14.7021 14.7407 18.6878 17.2522 6694440.0
886 -0.00855 0.000161581 -269.251 436.79 14.6972 14.7382 18.5518 16.8399 6692180.0
885 -0.00845 0.000161537 -269.323 436.743 14.6916 14.7353 19.0813 17.5124 6689760.0
884 -0.00835 0.000161461 -269.451 436.72 14.6839 14.7298 20.643 19.6428 6686840.0
883 -0.00825 0.000161401 -269.55 436.697 14.6777 14.7254 21.7136 20.4082 6684000.0
882 -0.00815 0.00016134 -269.654 436.669 14.6711 14.7211 22.9198 21.4496 6681280.0
881 -0.00805 0.000161278 -269.758 436.614 14.6636 14.7164 23.7223 22.3772 6678060.0
880 -0.00795 0.000161216 -269.863 436.597 14.6575 14.712 24.9461 22.8708 6675200.0
879 -0.00785 0.000161139 -269.991 436.53 14.6482 14.7064 25.9614 24.1611 6671550.0
878 -0.00775 0.00016108 -270.09 436.5 14.6419 14.7021 27.0153 24.5403 6668460.0
877 -0.00765 0.000160993 -270.237 436.428 14.6316 14.6956 28.2229 26.2732 6664530.0
876 -0.00755 0.000160919 -270.362 436.383 14.6233 14.6901 29.4878 26.8631 6660930.0
875 -0.00745 0.000160838 -270.497 436.331 14.6142 14.6846 30.6893 28.0436 6657280.0
874 -0.00735 0.000160745 -270.653 436.268 14.6036 14.6777 32.1451 29.7323 6652770.0
873 -0.00725 0.000160653 -270.807 436.183 14.5924 14.6709 33.2407 30.8801 6648250.0
872 -0.00715 0.000160566 -270.953 436.074 14.5809 14.6642 33.9058 31.6921 6643380.0
871 -0.00705 0.00016045 -271.15 436.043 14.5693 14.6559 36.3097 33.7575 6638860.0
870 -0.00695 0.000160357 -271.305 435.965 14.5583 14.6488 37.5143 34.4259 6633980.0
869 -0.00685 0.000160257 -271.475 435.878 14.5463 14.6419 38.8442 35.9289 6629170.0
868 -0.00675 0.000160155 -271.651 435.82 14.5351 14.6342 40.6585 37.0987 6624110.0
867 -0.00665 0.000160041 -271.844 435.756 14.5226 14.6254 42.5572 38.6551 6618780.0
866 -0.00655 0.000159935 -272.025 435.654 14.5096 14.6178 43.6391 39.5985 6613280.0
865 -0.00645 0.000159814 -272.229 435.545 14.495 14.6088 45.2143 41.0691 6607330.0
864 -0.00635 0.00015967 -272.476 435.459 14.479 14.598 47.6741 43.5773 6600800.0
863 -0.00625 0.000159556 -272.67 435.384 14.4663 14.5895 49.4038 44.1236 6595050.0
862 -0.00615 0.000159409 -272.922 435.276 14.4493 14.5785 51.6536 46.3703 6588060.0
861 -0.00605 0.00015926 -273.177 435.113 14.4304 14.5676 53.2145 48.5969 6580770.0
860 -0.00595 0.000159099 -273.455 434.999 14.412 14.5553 55.7289 50.6708 6573060.0
859 -0.00585 0.00015895 -273.711 434.916 14.3958 14.5443 58.2516 52.0375 6566230.0
858 -0.00575 0.000158776 -274.01 434.786 14.3757 14.5311 60.8581 54.3073 6558140.0
857 -0.00565 0.000158602 -274.31 434.611 14.3542 14.5181 62.872 56.3224 6549620.0
856 -0.00555 0.000158413 -274.639 434.483 14.3329 14.504 65.9227 59.1141 6540990.0
855 -0.00545 0.000158225 -274.964 434.315 14.3103 14.4895 68.4024 61.3144 6531690.0
854 -0.00535 0.000158041 -275.286 434.162 14.2887 14.4752 70.9204 62.9462 6522140.0