ITEM: TIMESTEP
30000
ITEM: NUMBER OF CELLS
1200
ITEM: BOX BOUNDS os pp pp
-0.08 0.04
-0.001 0.001
-0.001 0.001
ITEM: CELLS id f_1[1] f_1[2] f_1[3] f_1[4] f_1[5] f_1[6] f_1[7] f_1[8] f_1[9] 
1 -0.07995 8.83391e-05 492.525 273.09 5.02376 5.02245 0.0820073 -0.198415 1.42709e+06 
2 -0.07985 8.83434e-05 492.502 273.087 5.02396 5.02335 0.226155 -0.238241 1.42722e+06 
3 -0.07975 8.83439e-05 492.502 273.102 5.02425 5.02345 0.0437588 -0.215636 1.42745e+06 
4 -0.07965 8.83414e-05 492.513 273.098 5.02403 5.02295 0.0302264 -0.17861 1.42734e+06 
5 -0.07955 8.83469e-05 492.482 273.125 5.02485 5.02435 -0.210765 -0.417179 1.42797e+06 
6 -0.07945 8.83387e-05 492.527 273.095 5.02382 5.02227 0.022992 -0.0679783 1.42715e+06 
7 -0.07935 8.83395e-05 492.528 273.1 5.02397 5.02246 -0.0373502 -0.0734932 1.42734e+06 
8 -0.07925 8.83426e-05 492.506 273.121 5.02452 5.02328 -0.302162 -0.227484 1.42781e+06 
9 -0.07915 8.83458e-05 492.486 273.117 5.02463 5.02416 -0.0730509 -0.254258 1.42789e+06 
10 -0.07905 8.83493e-05 492.474 273.111 5.02473 5.0248 0.0300939 -0.384023 1.42801e+06 
11 -0.07895 8.83511e-05 492.458 273.124 5.02507 5.02527 -0.119401 -0.503474 1.42829e+06 
12 -0.07885 8.83514e-05 492.456 273.133 5.02524 5.02552 -0.157127 -0.54913 1.42845e+06 
13 -0.07875 8.83512e-05 492.455 273.129 5.02516 5.02553 -0.143939 -0.560937 1.42844e+06 
14 -0.07865 8.83498e-05 492.466 273.132 5.02515 5.02527 -0.173457 -0.503625 1.42843e+06 
15 -0.07855 8.83466e-05 492.481 273.128 5.02487 5.02438 -0.22811 -0.381077 1.42824e+06 
16 -0.07845 8.83478e-05 492.478 273.128 5.02495 5.02471 -0.17545 -0.437324 1.42831e+06 
17 -0.07835 8.83409e-05 492.515 273.108 5.0242 5.02307 -0.109714 -0.245232 1.42777e+06 
18 -0.07825 8.83499e-05 492.467 273.136 5.02522 5.02517 -0.248942 -0.501507 1.42849e+06 
19 -0.07815 8.83489e-05 492.473 273.137 5.02517 5.02493 -0.319029 -0.455678 1.42853e+06 
20 -0.07805 8.83511e-05 492.462 273.139 5.02533 5.02528 -0.275052 -0.428215 1.42858e+06 
21 -0.07795 8.8355e-05 492.436 273.147 5.02571 5.02631 -0.258143 -0.501327 1.42889e+06 
22 -0.07785 8.83438e-05 492.503 273.109 5.02438 5.02351 -0.0867625 -0.099324 1.42794e+06 
23 -0.07775 8.8344e-05 492.499 273.103 5.02427 5.02367 0.00964378 -0.219318 1.42784e+06 
24 -0.07765 8.83503e-05 492.463 273.134 5.02519 5.02523 -0.248986 -0.483018 1.42854e+06 
25 -0.07755 8.83504e-05 492.46 273.128 5.0251 5.02524 -0.14536 -0.386874 1.42847e+06 
26 -0.07745 8.83453e-05 492.492 273.124 5.02474 5.02406 -0.241037 -0.284338 1.42817e+06 
27 -0.07735 8.83478e-05 492.475 273.128 5.02496 5.02469 -0.250588 -0.464906 1.42832e+06 
28 -0.07725 8.83492e-05 492.468 273.126 5.025 5.02496 -0.167746 -0.372261 1.42836e+06 
29 -0.07715 8.83476e-05 492.475 273.129 5.02495 5.02467 -0.212924 -0.364594 1.42835e+06 
30 -0.07705 8.83485e-05 492.472 273.137 5.02516 5.02495 -0.302117 -0.429014 1.42848e+06 
31 -0.07695 8.83462e-05 492.484 273.122 5.02475 5.02452 -0.176681 -0.379735 1.42829e+06 
32 -0.07685 8.8345e-05 492.487 273.117 5.02458 5.0241 -0.0979317 -0.24367 1.42811e+06 
33 -0.07675 8.83454e-05 492.488 273.103 5.02436 5.02423 0.058949 -0.264135 1.428e+06 
34 -0.07665 8.83426e-05 492.503 273.122 5.02454 5.02369 -0.255402 -0.244631 1.42811e+06 
35 -0.07655 8.83462e-05 492.481 273.131 5.0249 5.02466 -0.202326 -0.415278 1.42842e+06 
36 -0.07645 8.83425e-05 492.504 273.118 5.02447 5.02365 -0.192479 -0.315314 1.42809e+06 
37 -0.07635 8.83449e-05 492.487 273.13 5.02483 5.02433 -0.25589 -0.343913 1.42833e+06 
38 -0.07625 8.83458e-05 492.483 273.13 5.02487 5.02471 -0.229863 -0.554902 1.42844e+06 
39 -0.07615 8.83458e-05 492.485 273.137 5.025 5.02445 -0.305799 -0.471461 1.42843e+06 
40 -0.07605 8.83444e-05 492.488 273.135 5.02489 5.0242 -0.363199 -0.451839 1.4284e+06 
41 -0.07595 8.83442e-05 492.49 273.139 5.02496 5.02424 -0.388881 -0.348219 1.4284e+06 
42 -0.07585 8.83468e-05 492.476 273.141 5.02514 5.02467 -0.391 -0.359778 1.4285e+06 
43 -0.07575 8.83444e-05 492.49 273.126 5.02472 5.02428 -0.274684 -0.293165 1.42825e+06 
44 -0.07565 8.83448e-05 492.486 273.128 5.02477 5.02444 -0.237008 -0.290518 1.4283e+06 
45 -0.07555 8.83457e-05 492.48 273.145 5.02513 5.0246 -0.432953 -0.248507 1.42851e+06 
46 -0.07545 8.83483e-05 492.463 273.141 5.02523 5.02533 -0.352512 -0.457249 1.42866e+06 
47 -0.07535 8.83402e-05 492.511 273.103 5.02406 5.02335 -0.0612084 -0.0638206 1.4278e+06 
48 -0.07525 8.8344e-05 492.491 273.109 5.02438 5.02421 -0.00828646 -0.175231 1.42802e+06 
49 -0.07515 8.83434e-05 492.494 273.116 5.02447 5.02414 -0.167849 -0.208745 1.42814e+06 
50 -0.07505 8.83444e-05 492.486 273.116 5.02453 5.02433 -0.12502 -0.224592 1.42817e+06 
51 -0.07495 8.83469e-05 492.472 273.132 5.02496 5.02497 -0.305936 -0.345602 1.42857e+06 
52 -0.07485 8.83409e-05 492.509 273.129 5.02457 5.02354 -0.389335 -0.150972 1.42827e+06 
53 -0.07475 8.8339e-05 492.52 273.108 5.02408 5.02298 -0.221122 -0.09042 1.42792e+06 
54 -0.07465 8.83425e-05 492.5 273.126 5.02461 5.02385 -0.303541 -0.24043 1.42824e+06 
55 -0.07455 8.83418e-05 492.501 273.121 5.02449 5.02365 -0.297522 -0.224622 1.42821e+06 
56 -0.07445 8.83466e-05 492.479 273.133 5.02498 5.0247 -0.316258 -0.299082 1.4286e+06 
68 -0.07325 8.83451e-05 492.483 273.125 5.02474 5.02472 -0.25972 -0.480273 1.42855e+06 
65 -0.07355 8.83476e-05 492.469 273.139 5.02514 5.02528 -0.334769 -0.463917 1.42875e+06 
66 -0.07345 8.8346e-05 492.478 273.137 5.02502 5.02489 -0.391444 -0.449239 1.42874e+06 
67 -0.07335 8.83473e-05 492.471 273.143 5.0252 5.02507 -0.43461 -0.43813 1.42882e+06 
69 -0.07315 8.83488e-05 492.465 273.144 5.02529 5.02542 -0.398145 -0.501327 1.42894e+06 
70 -0.07305 8.83411e-05 492.508 273.111 5.02425 5.02359 -0.161525 -0.218072 1.42813e+06 
71 -0.07295 8.83423e-05 492.503 273.103 5.02417 5.02379 -0.0212226 -0.151569 1.42808e+06 
72 -0.07285 8.83486e-05 492.462 273.136 5.02513 5.02545 -0.285651 -0.427876 1.42881e+06 
73 -0.07275 8.8344e-05 492.495 273.123 5.02465 5.02429 -0.247307 -0.21084 1.42849e+06 
74 -0.07265 8.8343e-05 492.497 273.123 5.02457 5.02414 -0.276427 -0.242919 1.42848e+06 
75 -0.07255 8.83391e-05 492.521 273.098 5.0239 5.02308 -0.0674245 -0.12632 1.42796e+06 
57 -0.07435 8.83471e-05 492.473 273.146 5.02524 5.02496 -0.470365 -0.369382 1.42882e+06 
58 -0.07425 8.83497e-05 492.459 273.153 5.02551 5.02553 -0.482517 -0.38686 1.42901e+06 
59 -0.07415 8.83497e-05 492.462 273.142 5.02532 5.0254 -0.405698 -0.414904 1.4289e+06 
60 -0.07405 8.83486e-05 492.471 273.143 5.02527 5.02506 -0.416723 -0.367984 1.42881e+06 
61 -0.07395 8.83405e-05 492.513 273.119 5.02437 5.02334 -0.332777 -0.137828 1.42821e+06 
62 -0.07385 8.83427e-05 492.499 273.123 5.02456 5.02381 -0.295357 -0.176916 1.42833e+06 
63 -0.07375 8.83406e-05 492.514 273.112 5.02424 5.02337 -0.207502 -0.144289 1.4281e+06 
64 -0.07365 8.83445e-05 492.49 273.13 5.02479 5.02431 -0.360768 -0.29882 1.42849e+06 
76 -0.07245 8.83355e-05 492.541 273.09 5.02354 5.02228 -0.0197402 0.0363456 1.42765e+06 
77 -0.07235 8.83378e-05 492.527 273.096 5.0238 5.0226 -0.106506 0.0190053 1.42789e+06 
78 -0.07225 8.83289e-05 492.579 273.07 5.02282 5.02055 0.0248429 0.304138 1.42715e+06 
79 -0.07215 8.83299e-05 492.572 273.073 5.02292 5.0209 0.0253266 0.243919 1.42724e+06 
80 -0.07205 8.83266e-05 492.588 273.072 5.02271 5.0202 -0.0180996 0.383592 1.42709e+06 
81 -0.07195 8.8332e-05 492.559 273.087 5.0233 5.02144 -0.0837368 0.172462 1.42748e+06 
82 -0.07185 8.83297e-05 492.566 273.079 5.02302 5.02105 0.0107784 0.216544 1.42729e+06 
83 -0.07175 8.83329e-05 492.548 273.09 5.02341 5.02191 -0.0532382 0.0302641 1.42763e+06 
84 -0.07165 8.83344e-05 492.539 273.084 5.02338 5.02233 0.0526646 -0.0113711 1.42766e+06 
85 -0.07155 8.83405e-05 492.505 273.098 5.02399 5.02374 0.0268016 -0.102061 1.4281e+06 
86 -0.07145 8.83435e-05 492.491 273.096 5.02412 5.02436 0.120332 -0.205913 1.42815e+06 
87 -0.07135 8.83331e-05 492.548 273.076 5.02316 5.02187 0.107313 0.243886 1.42746e+06 
88 -0.07125 8.8339e-05 492.519 273.097 5.02388 5.02317 -0.00634588 0.13368 1.42797e+06 
89 -0.07115 8.83335e-05 492.547 273.071 5.02308 5.02195 0.205717 0.288578 1.42745e+06 
90 -0.07105 8.83388e-05 492.52 273.089 5.02372 5.02314 0.0892002 0.0812062 1.42792e+06 
91 -0.07095 8.83479e-05 492.47 273.119 5.02478 5.0254 -0.0147879 -0.238482 1.42871e+06 
92 -0.07085 8.83419e-05 492.502 273.108 5.02425 5.02389 -0.0761291 -0.00409989 1.42834e+06 
93 -0.07075 8.835e-05 492.459 273.144 5.02538 5.02582 -0.366635 -0.297039 1.42924e+06 
94 -0.07065 8.83463e-05 492.48 273.126 5.02482 5.02489 -0.200699 -0.154329 1.42883e+06 
95 -0.07055 8.83451e-05 492.484 273.123 5.02471 5.02469 -0.174453 -0.0508021 1.42877e+06 
96 -0.07045 8.8338e-05 492.526 273.082 5.02355 5.02291 0.150009 0.0891014 1.42796e+06 
97 -0.07035 8.83397e-05 492.523 273.083 5.02366 5.02315 0.196972 0.152076 1.42801e+06 
98 -0.07025 8.83457e-05 492.485 273.117 5.02463 5.0247 -0.150533 -0.123651 1.42876e+06 
99 -0.07015 8.83515e-05 492.451 273.135 5.02528 5.0261 -0.212809 -0.311142 1.42922e+06 
100 -0.07005 8.83448e-05 492.494 273.112 5.02449 5.02437 -0.121248 -0.124608 1.42866e+06 
101 -0.06995 8.83408e-05 492.513 273.1 5.02405 5.02357 -0.052775 -0.0521399 1.42835e+06 
102 -0.06985 8.83485e-05 492.471 273.134 5.02511 5.0252 -0.346373 -0.238586 1.42906e+06 
103 -0.06975 8.83439e-05 492.495 273.112 5.02443 5.02429 -0.111567 -0.0653491 1.42857e+06 
104 -0.06965 8.83431e-05 492.499 273.108 5.02432 5.02409 -0.119119 -0.062637 1.42847e+06 
105 -0.06955 8.83415e-05 492.504 273.115 5.02435 5.02379 -0.223444 -0.065285 1.42848e+06 
106 -0.06945 8.83382e-05 492.525 273.095 5.0238 5.02293 -0.0786716 -0.0554862 1.42809e+06 
107 -0.06935 8.83444e-05 492.49 273.11 5.02443 5.0245 -0.08459 -0.265414 1.42856e+06 
108 -0.06925 8.83413e-05 492.507 273.115 5.02434 5.02362 -0.262545 -0.0777329 1.42845e+06 
109 -0.06915 8.83461e-05 492.485 273.13 5.0249 5.02468 -0.35891 -0.209192 1.42878e+06 
110 -0.06905 8.83515e-05 492.449 273.156 5.02568 5.02627 -0.537335 -0.423895 1.42943e+06 
111 -0.06895 8.83437e-05 492.493 273.122 5.02461 5.02439 -0.243246 -0.0361696 1.42864e+06 
112 -0.06885 8.83391e-05 492.518 273.11 5.02411 5.02322 -0.247184 0.124002 1.42832e+06 
113 -0.06875 8.8345e-05 492.486 273.119 5.02462 5.02465 -0.182895 -0.0876622 1.42867e+06 
129 -0.06715 8.83458e-05 492.476 273.128 5.02483 5.02511 -0.303981 -0.527154 1.42899e+06 
130 -0.06705 8.83412e-05 492.501 273.096 5.02399 5.02393 0.0448357 -0.185825 1.4283e+06 
131 -0.06695 8.83381e-05 492.519 273.091 5.02371 5.02332 -0.00741103 -0.0963033 1.42816e+06 
114 -0.06865 8.8342e-05 492.5 273.123 5.02452 5.02399 -0.318472 0.0109124 1.4286e+06 
115 -0.06855 8.83483e-05 492.466 273.136 5.02512 5.02557 -0.313871 -0.254241 1.42907e+06 
116 -0.06845 8.83526e-05 492.443 273.16 5.02582 5.02639 -0.550804 -0.35184 1.42951e+06 
117 -0.06835 8.83496e-05 492.458 273.144 5.02534 5.02578 -0.3647 -0.29654 1.42914e+06 
118 -0.06825 8.8344e-05 492.491 273.124 5.02465 5.02444 -0.283763 -0.254146 1.42865e+06 
119 -0.06815 8.83441e-05 492.488 273.128 5.02475 5.02454 -0.368838 -0.33019 1.42875e+06 
120 -0.06805 8.83413e-05 492.506 273.124 5.02451 5.02366 -0.382921 -0.20176 1.42849e+06 
121 -0.06795 8.83398e-05 492.516 273.122 5.02438 5.02332 -0.406105 -0.221052 1.42844e+06 
122 -0.06785 8.83416e-05 492.503 273.127 5.02458 5.02375 -0.408548 -0.185739 1.42856e+06 
123 -0.06775 8.83483e-05 492.465 273.143 5.02524 5.02546 -0.417235 -0.382777 1.42913e+06 
124 -0.06765 8.83433e-05 492.497 273.119 5.02452 5.02406 -0.236719 -0.189384 1.42854e+06 
125 -0.06755 8.8345e-05 492.484 273.127 5.02478 5.02468 -0.329102 -0.383918 1.42884e+06 
126 -0.06745 8.83407e-05 492.505 273.097 5.02398 5.0237 -0.0176076 -0.184824 1.4283e+06 
127 -0.06735 8.83437e-05 492.488 273.126 5.02468 5.02452 -0.333776 -0.463254 1.42885e+06 
128 -0.06725 8.83468e-05 492.471 273.133 5.02499 5.0253 -0.349912 -0.615609 1.42909e+06 
136 -0.06645 8.83421e-05 492.496 273.102 5.02415 5.02414 -0.103609 -0.201958 1.42845e+06 
132 -0.06685 8.83406e-05 492.504 273.102 5.02406 5.02393 -0.113039 -0.1126 1.42843e+06 
133 -0.06675 8.83355e-05 492.532 273.078 5.02333 5.02254 0.0750107 0.064678 1.42783e+06 
134 -0.06665 8.83394e-05 492.511 273.1 5.02396 5.02346 -0.148474 -0.0900026 1.42833e+06 
135 -0.06655 8.83404e-05 492.505 273.104 5.02409 5.0237 -0.196012 -0.15782 1.42844e+06 
137 -0.06635 8.83377e-05 492.517 273.101 5.02387 5.02332 -0.188926 -0.103258 1.42829e+06 
138 -0.06625 8.83454e-05 492.478 273.124 5.02474 5.02502 -0.279168 -0.342673 1.42892e+06 
139 -0.06615 8.83456e-05 492.475 273.123 5.02473 5.0252 -0.307533 -0.43845 1.429e+06 
140 -0.06605 8.83415e-05 492.499 273.117 5.02438 5.02423 -0.321276 -0.256811 1.4288e+06 
141 -0.06595 8.83469e-05 492.467 273.132 5.02497 5.02546 -0.377654 -0.396995 1.42926e+06 
142 -0.06585 8.83408e-05 492.499 273.111 5.02423 5.0241 -0.245178 -0.162312 1.42868e+06 
143 -0.06575 8.83343e-05 492.537 273.082 5.02334 5.02242 -0.0422386 0.0842623 1.42802e+06 
144 -0.06565 8.83316e-05 492.553 273.062 5.02282 5.02186 0.157171 0.12583 1.42765e+06 
145 -0.06555 8.83344e-05 492.537 273.073 5.02317 5.02245 0.0629247 0.0152714 1.42789e+06 
146 -0.06545 8.83383e-05 492.515 273.09 5.0237 5.02354 0.0226205 -0.141578 1.42825e+06 
147 -0.06535 8.83414e-05 492.495 273.097 5.02402 5.02432 -0.00337467 -0.258634 1.42854e+06 
148 -0.06525 8.8346e-05 492.474 273.117 5.02465 5.02527 -0.161357 -0.35657 1.42896e+06 
149 -0.06515 8.83431e-05 492.491 273.116 5.02446 5.02447 -0.256324 -0.197529 1.42883e+06 
150 -0.06505 8.83469e-05 492.469 273.127 5.02488 5.02537 -0.274349 -0.283948 1.42916e+06 
151 -0.06495 8.83482e-05 492.46 273.132 5.02505 5.02574 -0.31355 -0.375269 1.42929e+06 
152 -0.06485 8.83414e-05 492.5 273.1 5.02406 5.02402 -0.0319255 -0.147211 1.42852e+06 
153 -0.06475 8.83393e-05 492.51 273.081 5.0236 5.02364 0.134781 -0.0133385 1.42824e+06 
154 -0.06465 8.8344e-05 492.486 273.094 5.0241 5.02469 0.0758128 -0.227433 1.42862e+06 
155 -0.06455 8.83427e-05 492.49 273.112 5.02436 5.02456 -0.146835 -0.172199 1.42881e+06 
156 -0.06445 8.83435e-05 492.486 273.114 5.02444 5.02469 -0.163708 -0.158528 1.42887e+06 
157 -0.06435 8.83453e-05 492.478 273.11 5.02448 5.02506 -0.113232 -0.192868 1.42891e+06 
158 -0.06425 8.83413e-05 492.498 273.091 5.02389 5.02422 0.106201 -0.085236 1.42852e+06 
159 -0.06415 8.83473e-05 492.465 273.097 5.02435 5.02557 0.170252 -0.254235 1.42878e+06 
160 -0.06405 8.83468e-05 492.469 273.102 5.02442 5.02545 0.0611037 -0.289974 1.42882e+06 
161 -0.06395 8.83396e-05 492.506 273.096 5.0239 5.02381 -0.0510774 -0.0381299 1.42844e+06 
162 -0.06385 8.8342e-05 492.494 273.097 5.02405 5.0243 -0.0130358 -0.128135 1.42851e+06 
163 -0.06375 8.83435e-05 492.486 273.109 5.02436 5.02476 -0.109694 -0.144172 1.42875e+06 
164 -0.06365 8.83466e-05 492.467 273.122 5.02477 5.0254 -0.207822 -0.219288 1.42897e+06 
165 -0.06355 8.8341e-05 492.497 273.123 5.02448 5.02419 -0.353864 -0.0952271 1.42881e+06 
166 -0.06345 8.83399e-05 492.505 273.115 5.02425 5.02393 -0.284248 -0.0873029 1.42864e+06 
167 -0.06335 8.83344e-05 492.534 273.094 5.02356 5.02269 -0.146009 0.0421289 1.42813e+06 
168 -0.06325 8.83334e-05 492.541 273.07 5.02306 5.02232 0.155088 0.126882 1.42775e+06 
169 -0.06315 8.8333e-05 492.545 273.075 5.02314 5.02231 0.0328723 0.0567821 1.42789e+06 
170 -0.06305 8.83403e-05 492.502 273.099 5.02398 5.02403 -0.0583031 -0.0997988 1.42846e+06 
171 -0.06295 8.83427e-05 492.491 273.116 5.02444 5.02454 -0.226027 -0.171084 1.42875e+06 
172 -0.06285 8.83317e-05 492.548 273.079 5.02314 5.02209 -0.0823276 0.087543 1.42788e+06 
173 -0.06275 8.83277e-05 492.573 273.059 5.02255 5.02106 0.101851 0.262226 1.4274e+06 
174 -0.06265 8.83267e-05 492.579 273.045 5.02223 5.0207 0.254743 0.386385 1.42717e+06 
175 -0.06255 8.83312e-05 492.556 273.064 5.02283 5.02176 0.116604 0.283599 1.42763e+06 
176 -0.06245 8.8334e-05 492.534 273.078 5.02324 5.02265 0.0621828 0.121158 1.42795e+06 
177 -0.06235 8.83365e-05 492.53 273.09 5.02361 5.02296 -0.064234 0.109899 1.42816e+06 
178 -0.06225 8.83278e-05 492.572 273.062 5.02259 5.02099 0.0719249 0.321995 1.42747e+06 
179 -0.06215 8.83339e-05 492.54 273.068 5.02305 5.0225 0.159424 0.0821035 1.42778e+06 
180 -0.06205 8.83377e-05 492.516 273.086 5.0236 5.02351 0.0113826 -0.0520747 1.42823e+06 
181 -0.06195 8.83412e-05 492.496 273.105 5.02416 5.02427 -0.132326 -0.217295 1.4286e+06 
182 -0.06185 8.83396e-05 492.504 273.105 5.02407 5.02395 -0.203428 -0.247661 1.42864e+06 
183 -0.06175 8.83311e-05 492.548 273.079 5.0231 5.02216 -0.0508851 -0.0631464 1.42795e+06 
184 -0.06165 8.83244e-05 492.586 273.049 5.02217 5.02056 0.173387 0.190281 1.42723e+06 
185 -0.06155 8.83245e-05 492.583 273.059 5.02235 5.02065 0.0621113 0.193946 1.42736e+06 
186 -0.06145 8.83193e-05 492.614 273.038 5.02168 5.01938 0.172339 0.330674 1.42691e+06 
187 -0.06135 8.83203e-05 492.612 273.021 5.02141 5.01938 0.441874 0.497547 1.42662e+06 
188 -0.06125 8.83269e-05 492.569 273.055 5.02243 5.02115 0.188234 0.219891 1.42737e+06 
203 -0.05975 8.833e-05 492.555 273.065 5.02279 5.02178 0.112815 0.242698 1.42774e+06 
193 -0.06075 8.83285e-05 492.559 273.044 5.02232 5.02167 0.407244 0.20249 1.42734e+06 
194 -0.06065 8.83333e-05 492.532 273.065 5.02297 5.02272 0.231742 0.0675039 1.42781e+06 
195 -0.06055 8.83296e-05 492.555 273.054 5.02254 5.02193 0.304953 0.111032 1.42754e+06 
196 -0.06045 8.8328e-05 492.564 273.055 5.02248 5.02145 0.217955 0.258448 1.4275e+06 
197 -0.06035 8.83291e-05 492.558 273.051 5.02247 5.02175 0.332444 0.283923 1.42744e+06 
198 -0.06025 8.83333e-05 492.532 273.07 5.02305 5.02282 0.169346 0.108545 1.42793e+06 
199 -0.06015 8.83263e-05 492.57 273.059 5.02245 5.02112 0.128927 0.331315 1.42746e+06 
200 -0.06005 8.83334e-05 492.535 273.086 5.02335 5.02268 -0.0412145 0.0980505 1.42808e+06 
201 -0.05995 8.83351e-05 492.523 273.082 5.02338 5.02305 0.101539 0.0947667 1.42815e+06 
202 -0.05985 8.83336e-05 492.534 273.089 5.02342 5.02273 -0.101853 0.0586781 1.42821e+06 
204 -0.05965 8.83268e-05 492.571 273.059 5.02249 5.02109 0.131796 0.312026 1.42753e+06 
205 -0.05955 8.83335e-05 492.542 273.08 5.02325 5.02239 -0.00361953 0.143597 1.42799e+06 
206 -0.05945 8.83395e-05 492.507 273.097 5.0239 5.02387 -0.0473201 -0.0419699 1.42848e+06 
189 -0.06115 8.83279e-05 492.566 273.065 5.02266 5.02141 0.0604299 0.119241 1.42755e+06 
190 -0.06105 8.8333e-05 492.535 273.071 5.02305 5.02262 0.111796 -0.0527811 1.42785e+06 
191 -0.06095 8.83298e-05 492.558 273.071 5.02288 5.02186 0.0763691 0.124081 1.42773e+06 
192 -0.06085 8.83293e-05 492.554 273.054 5.02254 5.02179 0.305389 0.201766 1.4275e+06 
207 -0.05935 8.83382e-05 492.516 273.089 5.02368 5.02359 0.0464425 -0.0156214 1.42832e+06 
208 -0.05925 8.83299e-05 492.558 273.057 5.02263 5.02154 0.246873 0.286676 1.42755e+06 
209 -0.05915 8.83324e-05 492.544 273.072 5.02305 5.02226 0.117994 0.0389214 1.42786e+06 
210 -0.05905 8.83336e-05 492.538 273.085 5.02334 5.02255 -0.0238245 -0.0612451 1.42806e+06 
211 -0.05895 8.8334e-05 492.536 273.083 5.02333 5.02261 0.0143713 -0.0641215 1.42799e+06 
212 -0.05885 8.83307e-05 492.554 273.083 5.02314 5.02191 -0.0931666 0.0152487 1.42791e+06 
213 -0.05875 8.83291e-05 492.563 273.078 5.02297 5.02148 -0.0647928 0.190127 1.42774e+06 
214 -0.05865 8.83384e-05 492.511 273.103 5.02395 5.02373 -0.12538 -0.114504 1.42844e+06 
215 -0.05855 8.8336e-05 492.526 273.089 5.02355 5.02313 -0.0152544 -0.0439413 1.42818e+06 
216 -0.05845 8.83321e-05 492.548 273.069 5.02297 5.02223 0.117193 0.0685238 1.42782e+06 
217 -0.05835 8.83299e-05 492.56 273.072 5.0229 5.02168 0.0235385 0.0876676 1.42773e+06 
218 -0.05825 8.83301e-05 492.561 273.067 5.02283 5.02162 0.0680051 0.0809154 1.4277e+06 
219 -0.05815 8.83335e-05 492.541 273.066 5.02299 5.02255 0.160218 -0.05142 1.42786e+06 
220 -0.05805 8.83365e-05 492.522 273.066 5.02317 5.0233 0.298319 -0.113198 1.42799e+06 
221 -0.05795 8.83335e-05 492.54 273.076 5.02319 5.02254 0.0654004 0.0226841 1.42801e+06 
222 -0.05785 8.83342e-05 492.536 273.07 5.02311 5.02282 0.1721 -0.0733137 1.42802e+06 
223 -0.05775 8.83383e-05 492.513 273.078 5.02349 5.02374 0.133132 -0.208304 1.42833e+06 
224 -0.05765 8.83371e-05 492.519 273.083 5.02351 5.02347 0.0432317 -0.117501 1.4283e+06 
225 -0.05755 8.83384e-05 492.511 273.098 5.02387 5.02384 -0.0456228 -0.179947 1.42854e+06 
226 -0.05745 8.83394e-05 492.509 273.089 5.02376 5.02401 0.0579318 -0.223704 1.42844e+06 
227 -0.05735 8.83396e-05 492.504 273.09 5.02379 5.02412 0.0787005 -0.189112 1.42851e+06 
228 -0.05725 8.83364e-05 492.522 273.095 5.02369 5.02339 -0.104654 -0.116048 1.42846e+06 
229 -0.05715 8.83408e-05 492.494 273.115 5.02432 5.02456 -0.268613 -0.242604 1.42895e+06 
230 -0.05705 8.83396e-05 492.504 273.107 5.02409 5.02417 -0.151325 -0.177214 1.42871e+06 
231 -0.05695 8.83374e-05 492.512 273.109 5.02402 5.02368 -0.217144 -0.148968 1.42858e+06 
232 -0.05685 8.83353e-05 492.522 273.095 5.02363 5.02337 -0.0749248 -0.148396 1.42834e+06 
233 -0.05675 8.83346e-05 492.527 273.09 5.0235 5.02332 -0.0482545 -0.0608525 1.42826e+06 
234 -0.05665 8.83339e-05 492.532 273.076 5.02321 5.0228 0.113845 0.0750375 1.42792e+06 
235 -0.05655 8.83329e-05 492.538 273.085 5.02332 5.02256 -0.0189936 0.0554415 1.42805e+06 
236 -0.05645 8.83334e-05 492.536 273.099 5.0236 5.02281 -0.234345 -0.0796708 1.4283e+06 
237 -0.05635 8.83328e-05 492.536 273.084 5.02328 5.02268 0.00871369 0.0713113 1.42806e+06 
238 -0.05625 8.83367e-05 492.512 273.106 5.02391 5.0237 -0.166534 -0.133962 1.42853e+06 
239 -0.05615 8.83404e-05 492.494 273.114 5.02427 5.02445 -0.200349 -0.221765 1.42879e+06 
240 -0.05605 8.83411e-05 492.49 273.109 5.02422 5.02462 -0.137128 -0.207587 1.4288e+06 
241 -0.05595 8.83413e-05 492.487 273.125 5.02452 5.02474 -0.306586 -0.228114 1.42896e+06 
242 -0.05585 8.83397e-05 492.497 273.122 5.02438 5.02426 -0.32237 -0.182127 1.42885e+06 
243 -0.05575 8.83327e-05 492.541 273.096 5.02349 5.02248 -0.195821 0.0412746 1.42821e+06 
244 -0.05565 8.83259e-05 492.571 273.081 5.02285 5.02116 -0.15565 0.192785 1.42779e+06 
257 -0.05435 8.83392e-05 492.496 273.131 5.02452 5.02452 -0.386552 -0.351148 1.42885e+06 
258 -0.05425 8.83264e-05 492.57 273.071 5.02269 5.02127 0.00482752 0.110174 1.42751e+06 
259 -0.05415 8.83283e-05 492.557 273.078 5.02293 5.02186 0.0202921 0.0644343 1.42769e+06 
260 -0.05405 8.83319e-05 492.537 273.09 5.02335 5.02282 -0.0371575 -0.0758989 1.42804e+06 
261 -0.05395 8.83321e-05 492.535 273.082 5.02321 5.02274 0.0171958 -0.090369 1.42792e+06 
262 -0.05385 8.83283e-05 492.556 273.061 5.02261 5.02189 0.265004 0.0690194 1.42756e+06 
263 -0.05375 8.83318e-05 492.535 273.081 5.02318 5.02282 0.0475078 -0.139234 1.428e+06 
245 -0.05555 8.83285e-05 492.558 273.085 5.02305 5.02166 -0.0937152 0.212308 1.42783e+06 
246 -0.05545 8.83274e-05 492.565 273.091 5.02311 5.02146 -0.233311 0.150522 1.42792e+06 
247 -0.05535 8.83311e-05 492.54 273.098 5.02344 5.02251 -0.242522 -0.0288229 1.42822e+06 
248 -0.05525 8.83331e-05 492.532 273.096 5.02353 5.02302 -0.112362 -0.0744886 1.4283e+06 
249 -0.05515 8.83366e-05 492.511 273.111 5.024 5.02384 -0.215839 -0.365782 1.42859e+06 
250 -0.05505 8.83344e-05 492.523 273.092 5.02353 5.02338 -0.0169908 -0.258543 1.42828e+06 
251 -0.05495 8.8335e-05 492.522 273.09 5.02353 5.02338 0.0529474 -0.150261 1.42827e+06 
252 -0.05485 8.83362e-05 492.514 273.1 5.02377 5.02373 -0.0918365 -0.218372 1.42848e+06 
253 -0.05475 8.8333e-05 492.532 273.099 5.02357 5.02284 -0.129082 -0.0990072 1.42826e+06 
254 -0.05465 8.83395e-05 492.497 273.118 5.0243 5.02449 -0.239469 -0.359239 1.4288e+06 
255 -0.05455 8.83368e-05 492.508 273.107 5.02394 5.02383 -0.139346 -0.203455 1.4285e+06 
256 -0.05445 8.83344e-05 492.522 273.121 5.02406 5.02339 -0.359115 -0.198717 1.42854e+06 
271 -0.05295 8.83299e-05 492.551 273.08 5.02305 5.02222 -0.000113657 -0.119811 1.42796e+06 
264 -0.05365 8.83292e-05 492.555 273.08 5.02301 5.02219 0.0390045 0.0233778 1.42789e+06 
265 -0.05355 8.83249e-05 492.572 273.06 5.0224 5.02106 0.154752 0.119634 1.42745e+06 
266 -0.05345 8.83299e-05 492.547 273.079 5.02304 5.02237 0.0608689 -0.0892804 1.4279e+06 
267 -0.05335 8.83328e-05 492.53 273.099 5.02357 5.02306 -0.161325 -0.235271 1.42831e+06 
268 -0.05325 8.8328e-05 492.554 273.089 5.02311 5.02209 -0.110261 -0.0384242 1.42799e+06 
269 -0.05315 8.83295e-05 492.55 273.083 5.02309 5.02226 -0.0566196 -0.0548295 1.42794e+06 
270 -0.05305 8.83269e-05 492.563 273.067 5.02265 5.02163 0.147908 0.0753672 1.42761e+06 
272 -0.05285 8.83323e-05 492.533 273.084 5.02325 5.02289 0.0531089 -0.127389 1.42806e+06 
273 -0.05275 8.83313e-05 492.542 273.08 5.02313 5.02255 0.0946101 -0.0726381 1.42789e+06 
274 -0.05265 8.83318e-05 492.539 273.097 5.02348 5.02268 -0.163884 -0.189448 1.42814e+06 
275 -0.05255 8.83386e-05 492.5 273.134 5.02453 5.02438 -0.484046 -0.498507 1.42896e+06 
276 -0.05245 8.83347e-05 492.521 273.131 5.02425 5.02343 -0.535429 -0.371086 1.4287e+06 
277 -0.05235 8.83286e-05 492.557 273.103 5.0234 5.02198 -0.323734 -0.227389 1.42813e+06 
278 -0.05225 8.83301e-05 492.545 273.099 5.02342 5.02247 -0.272077 -0.379251 1.42822e+06 
279 -0.05215 8.83299e-05 492.552 273.085 5.02314 5.02218 -0.10465 -0.33294 1.42799e+06 
280 -0.05205 8.8335e-05 492.53 273.102 5.02375 5.02329 -0.195867 -0.467705 1.4284e+06 
281 -0.05195 8.83314e-05 492.544 273.089 5.0233 5.02238 -0.129702 -0.344963 1.42803e+06 
282 -0.05185 8.83304e-05 492.554 273.088 5.02322 5.0221 -0.106931 -0.200601 1.42792e+06 
283 -0.05175 8.83308e-05 492.552 273.093 5.02334 5.02218 -0.183749 -0.147001 1.428e+06 
284 -0.05165 8.83338e-05 492.537 273.108 5.02379 5.02287 -0.303067 -0.323438 1.42832e+06 
285 -0.05155 8.83353e-05 492.53 273.099 5.0237 5.02302 -0.146436 -0.281641 1.42815e+06 
286 -0.05145 8.83365e-05 492.527 273.098 5.02377 5.02328 -0.101496 -0.281561 1.4282e+06 
287 -0.05135 8.83376e-05 492.521 273.1 5.02386 5.02347 -0.138929 -0.248752 1.42826e+06 
288 -0.05125 8.83325e-05 492.55 273.078 5.02315 5.02224 0.0245391 -0.05281 1.42781e+06 
289 -0.05115 8.83256e-05 492.589 273.048 5.02221 5.02048 0.276735 0.26518 1.42703e+06 
290 -0.05105 8.83272e-05 492.578 273.064 5.02261 5.02089 0.0173555 0.110135 1.42739e+06 
291 -0.05095 8.83288e-05 492.571 273.061 5.02264 5.02131 0.150731 0.0771069 1.42746e+06 
292 -0.05085 8.83252e-05 492.59 273.058 5.02238 5.02038 0.0550031 0.2186 1.42723e+06 
293 -0.05075 8.83256e-05 492.591 273.064 5.02252 5.02038 0.0121638 0.328035 1.42728e+06 
294 -0.05065 8.8336e-05 492.54 273.105 5.02386 5.02275 -0.274877 0.0169359 1.42826e+06 
295 -0.05055 8.83325e-05 492.555 273.084 5.02327 5.02201 -0.0842224 0.207407 1.42789e+06 
296 -0.05045 8.83374e-05 492.524 273.097 5.02379 5.02317 -0.112206 0.0442185 1.42829e+06 
297 -0.05035 8.83391e-05 492.518 273.085 5.02367 5.02356 0.0327492 -0.0531469 1.42825e+06 
298 -0.05025 8.83334e-05 492.548 273.076 5.02317 5.02233 0.0377509 0.0807397 1.42791e+06 
299 -0.05015 8.83345e-05 492.544 273.074 5.0232 5.02244 0.0948269 0.15653 1.42785e+06 
300 -0.05005 8.83351e-05 492.536 273.1 5.02371 5.02286 -0.216165 -0.0382202 1.42826e+06 
301 -0.04995 8.83336e-05 492.541 273.087 5.02339 5.02252 -0.0735145 0.048567 1.42808e+06 
302 -0.04985 8.83344e-05 492.538 273.076 5.02323 5.02266 0.0830267 0.00570675 1.42793e+06 
303 -0.04975 8.83349e-05 492.538 273.072 5.02318 5.02271 0.15508 0.00823628 1.42788e+06 
304 -0.04965 8.83348e-05 492.531 273.079 5.02331 5.02298 0.0835519 -0.0857181 1.42804e+06 
305 -0.04955 8.83358e-05 492.533 273.076 5.02331 5.02306 0.138959 -0.0520087 1.42798e+06 
306 -0.04945 8.83308e-05 492.558 273.06 5.02273 5.02187 0.224768 0.182783 1.42754e+06 
307 -0.04935 8.83358e-05 492.533 273.075 5.0233 5.02304 0.133272 0.000949385 1.42795e+06 
308 -0.04925 8.8339e-05 492.515 273.089 5.02373 5.02372 0.013227 -0.0444839 1.42828e+06 
309 -0.04915 8.8328e-05 492.576 273.047 5.02234 5.02112 0.245837 0.252393 1.4273e+06 
310 -0.04905 8.83302e-05 492.56 273.048 5.02248 5.02181 0.3586 0.204749 1.42742e+06 
311 -0.04895 8.83307e-05 492.559 273.049 5.02252 5.02185 0.296078 0.106123 1.42746e+06 
312 -0.04885 8.83341e-05 492.539 273.064 5.02299 5.02268 0.19118 0.0518874 1.4278e+06 
313 -0.04875 8.83324e-05 492.546 273.071 5.02303 5.02229 0.0409082 0.0436146 1.42784e+06 
314 -0.04865 8.83375e-05 492.521 273.093 5.02373 5.02353 -0.125322 -0.132186 1.42837e+06 
315 -0.04855 8.8341e-05 492.503 273.099 5.02403 5.02441 -0.124244 -0.221958 1.42861e+06 
316 -0.04845 8.83349e-05 492.534 273.1 5.0237 5.02286 -0.255049 0.091828 1.42828e+06 
317 -0.04835 8.83324e-05 492.55 273.083 5.02324 5.02227 -0.128317 0.0913154 1.42796e+06 
318 -0.04825 8.83376e-05 492.517 273.113 5.0241 5.02361 -0.389147 -0.134635 1.42858e+06 
319 -0.04815 8.83392e-05 492.512 273.117 5.02425 5.02383 -0.379443 -0.0865633 1.42863e+06 
338 -0.04625 8.83383e-05 492.514 273.077 5.02347 5.02375 0.100366 -0.0645891 1.42817e+06 
321 -0.04795 8.83352e-05 492.535 273.09 5.02353 5.02296 -0.141995 0.0775837 1.42814e+06 
322 -0.04785 8.83366e-05 492.522 273.096 5.02372 5.02345 -0.1916 -0.048651 1.42832e+06 
323 -0.04775 8.83368e-05 492.528 273.085 5.02353 5.02324 -0.0347112 0.0885304 1.4281e+06 
324 -0.04765 8.8331e-05 492.554 273.074 5.02301 5.02197 -0.0496127 0.288846 1.42775e+06 
325 -0.04755 8.834e-05 492.509 273.096 5.02392 5.0241 -0.0782373 -0.0316937 1.42844e+06 
326 -0.04745 8.83357e-05 492.535 273.077 5.02332 5.02296 0.0125879 0.182294 1.42803e+06 
327 -0.04735 8.83303e-05 492.563 273.059 5.02269 5.02171 0.139723 0.368742 1.42754e+06 
328 -0.04725 8.8336e-05 492.532 273.073 5.02327 5.02308 0.0611818 0.180671 1.42799e+06 
329 -0.04715 8.83313e-05 492.557 273.044 5.02247 5.0219 0.359986 0.392515 1.4274e+06 
330 -0.04705 8.8342e-05 492.499 273.085 5.02382 5.02448 0.113636 0.0696696 1.42838e+06 
331 -0.04695 8.83428e-05 492.491 273.091 5.02398 5.02486 0.0507301 -0.0746159 1.42854e+06 
332 -0.04685 8.83342e-05 492.539 273.057 5.02287 5.02274 0.30008 0.121087 1.42772e+06 
333 -0.04675 8.83326e-05 492.549 273.074 5.02309 5.0223 0.0541393 0.203699 1.42782e+06 
334 -0.04665 8.83354e-05 492.531 273.085 5.02345 5.02315 -0.063931 0.0527873 1.42822e+06 
335 -0.04655 8.83359e-05 492.527 273.084 5.02346 5.02324 0.0254132 0.0378178 1.42818e+06 