ITEM: TIMESTEP
20000
ITEM: NUMBER OF CELLS
1000
ITEM: BOX BOUNDS os pp pp
-0.07 0.03
-0.001 0.001
-0.001 0.001
ITEM: CELLS id f_1[1] f_1[2] f_1[3] f_1[4] f_1[5] f_1[6] f_1[7] f_1[8] f_1[9] 
1 -0.06995 8.83431e-05 985.005 273.14 5.02491 5.02458 -0.519194 -1.21517 1.42836e+06 
2 -0.06985 8.83424e-05 985.007 273.133 5.02473 5.02424 -0.418001 -1.02563 1.42808e+06 
3 -0.06975 8.8342e-05 985.008 273.135 5.02475 5.02428 -0.404944 -0.995039 1.42807e+06 
4 -0.06965 8.83427e-05 985.01 273.134 5.02478 5.02423 -0.402906 -0.958765 1.42807e+06 
5 -0.06955 8.83419e-05 985.013 273.131 5.02467 5.0239 -0.34544 -0.86219 1.42788e+06 
6 -0.06945 8.83423e-05 985.011 273.133 5.02473 5.02407 -0.386132 -0.961965 1.42805e+06 
7 -0.06935 8.83425e-05 985.008 273.134 5.02477 5.02414 -0.383463 -0.962999 1.42807e+06 
8 -0.06925 8.83427e-05 985.009 273.134 5.02477 5.02415 -0.40236 -0.975174 1.42813e+06 
9 -0.06915 8.83426e-05 985.008 273.138 5.02485 5.0243 -0.509203 -1.16405 1.42836e+06 
10 -0.06905 8.83422e-05 985.011 273.136 5.02478 5.02405 -0.430634 -1.00789 1.42816e+06 
11 -0.06895 8.83415e-05 985.014 273.131 5.02466 5.0238 -0.354875 -0.843633 1.42795e+06 
12 -0.06885 8.83418e-05 985.018 273.125 5.02454 5.02349 -0.188485 -0.514614 1.42755e+06 
13 -0.06875 8.83417e-05 985.015 273.129 5.02463 5.02382 -0.251553 -0.691908 1.42783e+06 
14 -0.06865 8.8342e-05 985.012 273.13 5.02465 5.02392 -0.316313 -0.803592 1.42798e+06 
15 -0.06855 8.83415e-05 985.013 273.131 5.02464 5.02387 -0.307217 -0.768578 1.42802e+06 
16 -0.06845 8.83417e-05 985.014 273.132 5.02468 5.02399 -0.360229 -0.895459 1.42811e+06 
17 -0.06835 8.83427e-05 985.011 273.133 5.02476 5.02413 -0.332071 -0.878575 1.42813e+06 
18 -0.06825 8.83418e-05 985.01 273.131 5.02466 5.02403 -0.313328 -0.849727 1.42809e+06 
19 -0.06815 8.8342e-05 985.013 273.131 5.02468 5.02416 -0.329207 -0.883111 1.4282e+06 
20 -0.06805 8.83417e-05 985.008 273.135 5.02474 5.02437 -0.398642 -0.984116 1.42846e+06 
21 -0.06795 8.8342e-05 985.008 273.133 5.02471 5.02429 -0.365143 -0.891546 1.42836e+06 
22 -0.06785 8.83422e-05 985.01 273.133 5.02473 5.02436 -0.372289 -0.894667 1.42839e+06 
23 -0.06775 8.83423e-05 985.015 273.126 5.0246 5.02395 -0.193872 -0.508689 1.42796e+06 
24 -0.06765 8.83419e-05 985.014 273.123 5.02453 5.02381 -0.176793 -0.468091 1.42791e+06 
25 -0.06755 8.83415e-05 985.015 273.125 5.02453 5.02383 -0.174768 -0.472312 1.42795e+06 
26 -0.06745 8.83414e-05 985.016 273.119 5.02442 5.02357 -0.0788838 -0.273039 1.4277e+06 
27 -0.06735 8.83412e-05 985.016 273.122 5.02447 5.02359 -0.143436 -0.351684 1.42781e+06 
28 -0.06725 8.83421e-05 985.019 273.125 5.02457 5.02371 -0.168491 -0.385259 1.4279e+06 
29 -0.06715 8.83408e-05 985.017 273.121 5.02443 5.02343 -0.145015 -0.326104 1.42781e+06 
30 -0.06705 8.83419e-05 985.019 273.125 5.02456 5.02373 -0.182292 -0.439545 1.42802e+06 
31 -0.06695 8.83418e-05 985.016 273.124 5.02453 5.02374 -0.139366 -0.418703 1.42802e+06 
32 -0.06685 8.8341e-05 985.018 273.12 5.02441 5.02347 -0.0373375 -0.158598 1.42779e+06 
33 -0.06675 8.83419e-05 985.022 273.117 5.02441 5.02339 0.0263171 -0.0591838 1.42767e+06 
34 -0.06665 8.83413e-05 985.019 273.117 5.02438 5.02347 -0.0268114 -0.199582 1.4278e+06 
35 -0.06655 8.83412e-05 985.02 273.117 5.02437 5.02338 0.0390645 -0.0556165 1.42769e+06 
36 -0.06645 8.83415e-05 985.018 273.12 5.02445 5.02343 -0.0489795 -0.218605 1.4278e+06 
37 -0.06635 8.83418e-05 985.021 273.117 5.02441 5.02338 -0.00821598 -0.0641278 1.42769e+06 
38 -0.06625 8.83414e-05 985.02 273.12 5.02444 5.02345 -0.0438758 -0.177298 1.42777e+06 
39 -0.06615 8.83416e-05 985.017 273.123 5.02451 5.02365 -0.0864095 -0.250014 1.42791e+06 
40 -0.06605 8.83415e-05 985.016 273.129 5.02461 5.02383 -0.188762 -0.392178 1.42813e+06 
41 -0.06595 8.83419e-05 985.012 273.129 5.02463 5.02397 -0.255994 -0.515841 1.42825e+06 
42 -0.06585 8.83425e-05 985.012 273.132 5.02472 5.02418 -0.319791 -0.594415 1.42844e+06 
43 -0.06575 8.83417e-05 985.011 273.131 5.02465 5.02411 -0.296336 -0.501465 1.42834e+06 
44 -0.06565 8.83427e-05 985.011 273.131 5.02472 5.02411 -0.27834 -0.41243 1.42836e+06 
45 -0.06555 8.83416e-05 985.012 273.131 5.02465 5.02408 -0.310489 -0.446798 1.4284e+06 
46 -0.06545 8.83419e-05 985.013 273.132 5.02468 5.02415 -0.292109 -0.411944 1.42839e+06 
47 -0.06535 8.83416e-05 985.01 273.134 5.02471 5.02427 -0.344881 -0.495067 1.42858e+06 
48 -0.06525 8.83422e-05 985.014 273.128 5.02463 5.024 -0.267203 -0.31438 1.42834e+06 
49 -0.06515 8.83413e-05 985.017 273.125 5.02453 5.0236 -0.14229 -0.0532813 1.42799e+06 
50 -0.06505 8.83417e-05 985.016 273.126 5.02457 5.02365 -0.181792 -0.102401 1.42809e+06 
51 -0.06495 8.83424e-05 985.013 273.129 5.02466 5.02403 -0.345491 -0.461711 1.42851e+06 
52 -0.06485 8.8342e-05 985.014 273.133 5.02472 5.02414 -0.384142 -0.541016 1.42863e+06 
53 -0.06475 8.83425e-05 985.015 273.131 5.02471 5.024 -0.283581 -0.386435 1.42841e+06 
54 -0.06465 8.83412e-05 985.019 273.122 5.02446 5.02349 -0.133845 -0.11008 1.42797e+06 
55 -0.06455 8.83417e-05 985.018 273.124 5.02452 5.02357 -0.153735 -0.196427 1.42809e+06 
56 -0.06445 8.83418e-05 985.019 273.123 5.02451 5.02356 -0.12513 -0.184029 1.42807e+06 
57 -0.06435 8.83419e-05 985.019 273.121 5.02448 5.02354 -0.136341 -0.203147 1.42803e+06 
58 -0.06425 8.83414e-05 985.017 273.126 5.02455 5.0238 -0.190662 -0.296931 1.42825e+06 
59 -0.06415 8.83411e-05 985.017 273.125 5.02452 5.02375 -0.20419 -0.319297 1.42825e+06 
60 -0.06405 8.83418e-05 985.016 273.125 5.02455 5.02381 -0.201055 -0.306305 1.42827e+06 
61 -0.06395 8.83419e-05 985.015 273.123 5.02452 5.02381 -0.150165 -0.268184 1.42821e+06 
62 -0.06385 8.83416e-05 985.019 273.122 5.02448 5.02371 -0.146757 -0.242656 1.42817e+06 
63 -0.06375 8.83423e-05 985.015 273.124 5.02457 5.02393 -0.143198 -0.27188 1.42832e+06 
69 -0.06315 8.83424e-05 985.014 273.127 5.02462 5.02404 -0.188118 -0.308017 1.4284e+06 
65 -0.06355 8.83424e-05 985.016 273.122 5.02453 5.02387 -0.0959258 -0.115874 1.42813e+06 
66 -0.06345 8.83419e-05 985.017 273.122 5.02449 5.02377 -0.115384 -0.159803 1.42814e+06 
67 -0.06335 8.83429e-05 985.01 273.13 5.0247 5.02427 -0.262228 -0.416648 1.4286e+06 
68 -0.06325 8.83429e-05 985.012 273.129 5.02468 5.02422 -0.268912 -0.425714 1.42853e+06 
70 -0.06305 8.83418e-05 985.015 273.121 5.02447 5.02383 -0.0661983 -0.100841 1.42816e+06 
71 -0.06295 8.83426e-05 985.014 273.124 5.02458 5.02401 -0.104141 -0.113869 1.42827e+06 
72 -0.06285 8.83423e-05 985.013 273.124 5.02457 5.02391 -0.120316 -0.124758 1.42829e+06 
73 -0.06275 8.83427e-05 985.013 273.123 5.02456 5.02401 -0.128095 -0.159097 1.42828e+06 
74 -0.06265 8.83424e-05 985.013 273.125 5.02458 5.02404 -0.0906605 -0.0346631 1.42823e+06 
75 -0.06255 8.83425e-05 985.014 273.123 5.02456 5.02398 -0.0416898 0.0630757 1.42812e+06 
76 -0.06245 8.83428e-05 985.009 273.125 5.02461 5.02427 -0.107102 -0.154369 1.42834e+06 
77 -0.06235 8.83429e-05 985.01 273.122 5.02456 5.02408 -0.0469937 -0.0904766 1.42819e+06 
78 -0.06225 8.83418e-05 985.011 273.125 5.02456 5.02412 -0.0916395 -0.181391 1.42826e+06 
64 -0.06365 8.83419e-05 985.018 273.121 5.02448 5.02378 -0.124185 -0.174867 1.42817e+06 
79 -0.06215 8.83414e-05 985.016 273.116 5.02438 5.02365 0.0707278 0.156117 1.42787e+06 
80 -0.06205 8.83419e-05 985.013 273.124 5.02453 5.02397 -0.0750045 -0.0546335 1.42817e+06 
81 -0.06195 8.83418e-05 985.016 273.124 5.02453 5.02391 -0.0926362 -0.0806708 1.42818e+06 
82 -0.06185 8.83416e-05 985.014 273.122 5.0245 5.0238 -0.0644197 -0.0213446 1.42812e+06 
83 -0.06175 8.83415e-05 985.016 273.121 5.02447 5.02379 -0.0320377 0.0195098 1.4281e+06 
84 -0.06165 8.83417e-05 985.015 273.121 5.02447 5.0238 -0.0594256 -0.00699706 1.42812e+06 
85 -0.06155 8.83421e-05 985.011 273.13 5.02466 5.02415 -0.203306 -0.264755 1.42856e+06 
86 -0.06145 8.83415e-05 985.013 273.125 5.02453 5.02403 -0.186355 -0.218222 1.4285e+06 
87 -0.06135 8.83417e-05 985.011 273.129 5.02463 5.02409 -0.168438 -0.232157 1.42851e+06 
88 -0.06125 8.83421e-05 985.012 273.129 5.02464 5.02418 -0.212661 -0.335652 1.42863e+06 
89 -0.06115 8.83418e-05 985.01 273.132 5.02469 5.02446 -0.327602 -0.558679 1.42894e+06 
90 -0.06105 8.83417e-05 985.012 273.127 5.02459 5.02419 -0.189456 -0.273748 1.42859e+06 
91 -0.06095 8.83418e-05 985.01 273.131 5.02466 5.0244 -0.234342 -0.376004 1.42877e+06 
92 -0.06085 8.83424e-05 985.008 273.129 5.02466 5.02446 -0.228941 -0.419305 1.42874e+06 
93 -0.06075 8.83416e-05 985.01 273.128 5.0246 5.0244 -0.212836 -0.338253 1.42869e+06 
94 -0.06065 8.83418e-05 985.013 273.125 5.02455 5.02415 -0.10378 -0.155613 1.42842e+06 
95 -0.06055 8.83412e-05 985.01 273.125 5.02453 5.02413 -0.131306 -0.212885 1.42849e+06 
96 -0.06045 8.83424e-05 985.01 273.131 5.02469 5.0245 -0.24189 -0.4069 1.42879e+06 
97 -0.06035 8.83417e-05 985.012 273.124 5.02453 5.02409 -0.112005 -0.124467 1.42841e+06 
98 -0.06025 8.83422e-05 985.013 273.124 5.02455 5.02418 -0.0589201 -0.0712945 1.42846e+06 
99 -0.06015 8.83411e-05 985.015 273.119 5.02439 5.02386 -0.00522081 0.0795098 1.42822e+06 
100 -0.06005 8.83424e-05 985.01 273.13 5.02467 5.02439 -0.209858 -0.271573 1.42879e+06 
101 -0.05995 8.83418e-05 985.012 273.127 5.02459 5.02404 -0.147275 -0.108612 1.42851e+06 
102 -0.05985 8.83419e-05 985.015 273.128 5.02461 5.024 -0.129808 -0.0452486 1.42844e+06 
103 -0.05975 8.83413e-05 985.015 273.126 5.02455 5.02397 -0.186122 -0.182425 1.42849e+06 
104 -0.05965 8.83415e-05 985.013 273.128 5.0246 5.02414 -0.193186 -0.250422 1.42863e+06 
105 -0.05955 8.83417e-05 985.016 273.128 5.0246 5.02403 -0.187931 -0.267621 1.42861e+06 
106 -0.05945 8.83411e-05 985.014 273.129 5.02459 5.02401 -0.228551 -0.271189 1.42864e+06 
107 -0.05935 8.83412e-05 985.016 273.125 5.02452 5.0237 -0.122134 -0.0585655 1.42837e+06 
108 -0.05925 8.83417e-05 985.02 273.122 5.0245 5.0236 -0.00899628 0.152607 1.42814e+06 
109 -0.05915 8.83415e-05 985.018 273.12 5.02445 5.02361 -0.047394 0.0373124 1.42827e+06 
110 -0.05905 8.83415e-05 985.019 273.124 5.02453 5.02383 -0.0845513 -0.0496552 1.42843e+06 
111 -0.05895 8.83414e-05 985.016 273.123 5.02449 5.0238 -0.0854094 -0.0699556 1.42847e+06 
112 -0.05885 8.83415e-05 985.018 273.121 5.02447 5.02369 -0.0471608 -0.0102269 1.42833e+06 
113 -0.05875 8.83414e-05 985.018 273.12 5.02444 5.02373 -0.0280713 -0.0398709 1.42836e+06 
114 -0.05865 8.83418e-05 985.018 273.12 5.02446 5.02381 -0.0153683 -0.0539558 1.42838e+06 
115 -0.05855 8.83406e-05 985.019 273.119 5.02437 5.02358 0.0531517 0.0626109 1.42819e+06 
116 -0.05845 8.83416e-05 985.02 273.117 5.02439 5.02356 0.055588 0.103917 1.42814e+06 
117 -0.05835 8.83413e-05 985.016 273.119 5.02441 5.02377 -0.010169 0.0504118 1.42829e+06 
118 -0.05825 8.83419e-05 985.016 273.124 5.02453 5.02398 -0.121857 -0.144536 1.42857e+06 
119 -0.05815 8.83409e-05 985.011 273.129 5.02457 5.02414 -0.207673 -0.344465 1.42878e+06 
120 -0.05805 8.83411e-05 985.017 273.123 5.02448 5.02388 -0.109323 -0.134659 1.4286e+06 
121 -0.05795 8.83411e-05 985.017 273.122 5.02446 5.02384 -0.0919594 -0.128027 1.42852e+06 
122 -0.05785 8.83407e-05 985.014 273.127 5.02453 5.02399 -0.161747 -0.2331 1.4287e+06 
123 -0.05775 8.83416e-05 985.013 273.125 5.02454 5.02398 -0.171445 -0.184267 1.42862e+06 
124 -0.05765 8.83409e-05 985.016 273.123 5.02446 5.02382 -0.0881537 0.0251165 1.42846e+06 
125 -0.05755 8.83412e-05 985.016 273.124 5.02451 5.024 -0.136874 -0.113148 1.4286e+06 
137 -0.05635 8.83416e-05 985.014 273.125 5.02455 5.02413 -0.138246 -0.257844 1.42873e+06 
129 -0.05715 8.83406e-05 985.018 273.122 5.02443 5.02369 -0.0631458 0.0801813 1.42848e+06 
130 -0.05705 8.83408e-05 985.021 273.115 5.02431 5.02341 0.0161837 0.205975 1.42818e+06 
131 -0.05695 8.83406e-05 985.021 273.119 5.02438 5.02348 -0.0216025 0.112909 1.4283e+06 
132 -0.05685 8.83406e-05 985.022 273.118 5.02435 5.02341 -0.0109044 0.113108 1.42825e+06 
133 -0.05675 8.8341e-05 985.021 273.119 5.02439 5.02358 -0.0111496 0.0910911 1.42832e+06 
134 -0.05665 8.83405e-05 985.023 273.119 5.02437 5.02343 0.0172637 0.147861 1.42824e+06 
135 -0.05655 8.83419e-05 985.019 273.121 5.02449 5.02372 -0.0622699 -0.0312248 1.42845e+06 
136 -0.05645 8.83412e-05 985.017 273.124 5.0245 5.0239 -0.157484 -0.209784 1.42866e+06 
138 -0.05625 8.8341e-05 985.016 273.122 5.02445 5.02397 -0.0710973 -0.123304 1.42857e+06 
139 -0.05615 8.83411e-05 985.019 273.118 5.02439 5.0238 0.00575662 0.0259881 1.4284e+06 
140 -0.05605 8.83405e-05 985.018 273.117 5.02434 5.02384 -0.0216184 -0.0186083 1.4285e+06 
141 -0.05595 8.8341e-05 985.017 273.118 5.02439 5.024 -0.0414073 -0.0652526 1.42858e+06 
126 -0.05745 8.83412e-05 985.013 273.128 5.02458 5.02414 -0.175414 -0.203493 1.42877e+06 
127 -0.05735 8.83419e-05 985.017 273.124 5.02454 5.02399 -0.16037 -0.14458 1.42868e+06 
128 -0.05725 8.83406e-05 985.019 273.123 5.02444 5.02375 -0.0890016 -0.0136731 1.4285e+06 
142 -0.05585 8.83411e-05 985.017 273.117 5.02436 5.02388 0.0209154 0.0775182 1.42842e+06 
143 -0.05575 8.83425e-05 985.015 273.121 5.02452 5.02415 -0.087399 -0.0919677 1.42866e+06 
144 -0.05565 8.83418e-05 985.014 273.121 5.02447 5.02402 -0.077505 -0.0648677 1.42858e+06 
145 -0.05555 8.83412e-05 985.014 273.12 5.02442 5.02398 -0.0052968 0.0367598 1.42846e+06 
146 -0.05545 8.83423e-05 985.018 273.116 5.02442 5.0239 0.0309367 0.107688 1.42837e+06 
147 -0.05535 8.83412e-05 985.016 273.115 5.02434 5.02386 0.057181 0.14793 1.42833e+06 
148 -0.05525 8.8342e-05 985.015 273.119 5.02446 5.02401 -0.0344305 0.0320286 1.42854e+06 
149 -0.05515 8.83418e-05 985.012 273.121 5.02448 5.0241 -0.0426314 0.0330433 1.4286e+06 
150 -0.05505 8.83421e-05 985.017 273.119 5.02445 5.02402 -0.0303301 0.0526585 1.4286e+06 
151 -0.05495 8.83417e-05 985.014 273.121 5.02447 5.02419 -0.0809189 -0.0629642 1.42876e+06 
152 -0.05485 8.83422e-05 985.014 273.122 5.02451 5.02407 -0.0731535 -0.0573221 1.42876e+06 
153 -0.05475 8.83415e-05 985.018 273.117 5.0244 5.02371 -0.0113343 0.0909761 1.42849e+06 
154 -0.05465 8.83411e-05 985.019 273.119 5.0244 5.02373 -0.0159228 0.0882616 1.42855e+06 
155 -0.05455 8.83416e-05 985.021 273.116 5.02437 5.0236 0.00800501 0.144693 1.4284e+06 
156 -0.05445 8.83414e-05 985.019 273.117 5.02439 5.02367 -0.006677 0.145724 1.42847e+06 
157 -0.05435 8.83412e-05 985.02 273.114 5.02432 5.02347 0.0784403 0.33215 1.42832e+06 
158 -0.05425 8.83419e-05 985.02 273.114 5.02436 5.02366 0.0803568 0.24127 1.42836e+06 
159 -0.05415 8.83413e-05 985.019 273.113 5.02431 5.02373 0.134206 0.314746 1.42831e+06 
160 -0.05405 8.83416e-05 985.017 273.118 5.02442 5.02392 0.0140197 0.173224 1.42857e+06 
161 -0.05395 8.83416e-05 985.017 273.117 5.02439 5.02384 0.0714973 0.228097 1.42848e+06 
162 -0.05385 8.83414e-05 985.016 273.119 5.02442 5.02392 -0.0383586 0.0780642 1.42865e+06 
163 -0.05375 8.83417e-05 985.019 273.117 5.0244 5.02373 0.039586 0.240263 1.42844e+06 
164 -0.05365 8.83409e-05 985.014 273.119 5.0244 5.0238 -0.0071854 0.1425 1.42856e+06 
165 -0.05355 8.83416e-05 985.02 273.119 5.02443 5.02384 0.00342527 0.206945 1.42858e+06 
166 -0.05345 8.83417e-05 985.017 273.117 5.0244 5.02377 -0.000558175 0.22288 1.42851e+06 
167 -0.05335 8.83421e-05 985.018 273.12 5.02447 5.02399 -0.0401806 0.0993077 1.42864e+06 
168 -0.05325 8.83415e-05 985.016 273.117 5.0244 5.02394 0.035629 0.183256 1.42851e+06 
169 -0.05315 8.83415e-05 985.016 273.119 5.02443 5.02399 -0.0117764 0.156291 1.42859e+06 
170 -0.05305 8.83422e-05 985.012 273.122 5.02452 5.02414 -0.0568014 0.00869127 1.42871e+06 
171 -0.05295 8.83417e-05 985.014 273.124 5.02454 5.02426 -0.127873 -0.140608 1.42893e+06 
172 -0.05285 8.83421e-05 985.013 273.125 5.02456 5.02423 -0.112269 -0.116065 1.4289e+06 
173 -0.05275 8.83412e-05 985.012 273.123 5.02448 5.0241 -0.0890911 -0.0806026 1.42883e+06 
174 -0.05265 8.83423e-05 985.014 273.124 5.02456 5.02418 -0.0949996 -0.0369413 1.42883e+06 
175 -0.05255 8.8342e-05 985.014 273.124 5.02454 5.0243 -0.142905 -0.122359 1.42893e+06 
176 -0.05245 8.83427e-05 985.012 273.126 5.02461 5.0243 -0.147796 -0.14069 1.4289e+06 
177 -0.05235 8.83429e-05 985.007 273.13 5.02471 5.02464 -0.256091 -0.352928 1.42919e+06 
178 -0.05225 8.83424e-05 985.009 273.129 5.02466 5.02442 -0.207 -0.219086 1.42903e+06 
179 -0.05215 8.83428e-05 985.008 273.131 5.02473 5.02471 -0.29038 -0.407459 1.42928e+06 
180 -0.05205 8.83432e-05 985.009 273.131 5.02475 5.02482 -0.255826 -0.405925 1.42931e+06 
181 -0.05195 8.83427e-05 985.006 273.126 5.02463 5.02448 -0.152909 -0.237311 1.42899e+06 
182 -0.05185 8.83426e-05 985.011 273.126 5.02462 5.02445 -0.147944 -0.151835 1.42899e+06 
183 -0.05175 8.83431e-05 985.003 273.132 5.02476 5.02475 -0.25912 -0.297477 1.42922e+06 
184 -0.05165 8.83429e-05 985.011 273.125 5.02462 5.02441 -0.112984 -0.00797961 1.42886e+06 
185 -0.05155 8.83421e-05 985.011 273.124 5.02456 5.02431 -0.100488 0.00399912 1.42883e+06 
186 -0.05145 8.83427e-05 985.008 273.127 5.02464 5.02451 -0.158651 -0.0948031 1.429e+06 
187 -0.05135 8.83425e-05 985.015 273.121 5.02453 5.02418 -0.0546465 0.104138 1.42875e+06 
188 -0.05125 8.83425e-05 985.012 273.123 5.02455 5.02422 -0.0452578 0.148608 1.4288e+06 
193 -0.05075 8.83422e-05 985.013 273.12 5.02449 5.02422 -0.0253069 0.0565002 1.42879e+06 
194 -0.05065 8.83424e-05 985.012 273.124 5.02456 5.02438 -0.0639063 -0.0288617 1.4289e+06 
195 -0.05055 8.83425e-05 985.008 273.127 5.02462 5.02464 -0.163354 -0.21702 1.42914e+06 
196 -0.05045 8.83422e-05 985.013 273.123 5.02454 5.02438 -0.101744 -0.0522216 1.42891e+06 
197 -0.05035 8.83422e-05 985.01 273.126 5.0246 5.0246 -0.166698 -0.191225 1.42911e+06 
198 -0.05025 8.83423e-05 985.01 273.123 5.02455 5.02444 -0.133504 -0.14667 1.42896e+06 
199 -0.05015 8.8342e-05 985.008 273.127 5.02459 5.02461 -0.183272 -0.253147 1.42915e+06 
200 -0.05005 8.83425e-05 985.01 273.126 5.0246 5.02457 -0.160382 -0.178836 1.42909e+06 
201 -0.04995 8.83424e-05 985.013 273.124 5.02457 5.02434 -0.0552295 0.0262188 1.42885e+06 
202 -0.04985 8.83419e-05 985.015 273.122 5.0245 5.02418 -0.0279333 0.085954 1.42878e+06 
203 -0.04975 8.83419e-05 985.014 273.119 5.02445 5.02398 0.00435947 0.189573 1.42863e+06 
189 -0.05115 8.83418e-05 985.014 273.118 5.02443 5.02411 0.0140288 0.203573 1.42867e+06 
190 -0.05105 8.83426e-05 985.015 273.119 5.02449 5.02417 0.00051909 0.154801 1.42871e+06 
191 -0.05095 8.8342e-05 985.012 273.119 5.02446 5.02421 -0.00363895 0.0882402 1.42874e+06 
192 -0.05085 8.83415e-05 985.015 273.118 5.0244 5.02409 0.088517 0.255234 1.42857e+06 
206 -0.04945 8.83425e-05 985.011 273.122 5.02454 5.02432 -0.0740785 -0.053107 1.42892e+06 
204 -0.04965 8.83425e-05 985.015 273.125 5.02459 5.02429 -0.0769281 0.0173665 1.4289e+06 
205 -0.04955 8.83417e-05 985.011 273.127 5.02459 5.02442 -0.11597 -0.105889 1.42901e+06 
207 -0.04935 8.83419e-05 985.012 273.122 5.0245 5.02433 -0.0585143 -0.0173416 1.42889e+06 
208 -0.04925 8.8343e-05 985.01 273.126 5.02463 5.02446 -0.131583 -0.0920835 1.42903e+06 
209 -0.04915 8.83424e-05 985.009 273.13 5.02468 5.02466 -0.242975 -0.305949 1.42931e+06 
210 -0.04905 8.83425e-05 985.009 273.13 5.02468 5.02465 -0.243753 -0.293784 1.42922e+06 
211 -0.04895 8.83425e-05 985.014 273.125 5.02459 5.02432 -0.11166 -0.0581453 1.4289e+06 
212 -0.04885 8.83421e-05 985.013 273.123 5.02454 5.02414 -0.120628 -0.00483295 1.42881e+06 
213 -0.04875 8.83419e-05 985.014 273.128 5.02461 5.0243 -0.193589 -0.0957739 1.42894e+06 
214 -0.04865 8.83421e-05 985.011 273.128 5.02463 5.02445 -0.23137 -0.240981 1.42913e+06 
215 -0.04855 8.83422e-05 985.012 273.127 5.0246 5.0244 -0.211532 -0.149011 1.42902e+06 
216 -0.04845 8.83416e-05 985.015 273.124 5.02452 5.02421 -0.141893 -0.0700739 1.42885e+06 
217 -0.04835 8.83419e-05 985.015 273.122 5.0245 5.02402 -0.0618862 0.0572861 1.42866e+06 
218 -0.04825 8.83417e-05 985.015 273.123 5.02451 5.02407 -0.113718 -0.0821124 1.42879e+06 
219 -0.04815 8.83417e-05 985.014 273.124 5.02452 5.02415 -0.0906408 -0.0737227 1.42878e+06 
220 -0.04805 8.83414e-05 985.013 273.123 5.02449 5.02414 -0.0436248 0.00284188 1.42869e+06 
221 -0.04795 8.83416e-05 985.014 273.119 5.02443 5.02402 -0.00840799 0.0617359 1.42857e+06 
222 -0.04785 8.83417e-05 985.018 273.114 5.02435 5.02367 0.122121 0.356997 1.42822e+06 
223 -0.04775 8.83426e-05 985.015 273.12 5.02451 5.02402 -0.0206688 0.127309 1.42854e+06 
224 -0.04765 8.83419e-05 985.015 273.124 5.02454 5.0241 -0.0582902 0.0548763 1.42868e+06 
225 -0.04755 8.83416e-05 985.009 273.126 5.02456 5.02435 -0.207439 -0.283155 1.42897e+06 
226 -0.04745 8.83427e-05 985.012 273.126 5.02462 5.02414 -0.11409 -0.0502956 1.42875e+06 
227 -0.04735 8.8342e-05 985.012 273.128 5.02463 5.02432 -0.199443 -0.226675 1.42898e+06 
228 -0.04725 8.8343e-05 985.012 273.128 5.02468 5.02433 -0.153593 -0.172111 1.42894e+06 
229 -0.04715 8.83423e-05 985.011 273.125 5.02458 5.02418 -0.15014 -0.150807 1.4289e+06 
230 -0.04705 8.83414e-05 985.013 273.126 5.02454 5.02417 -0.100137 -0.0890353 1.42886e+06 
231 -0.04695 8.8343e-05 985.013 273.121 5.02455 5.02411 -0.0115393 0.0285484 1.42868e+06 
232 -0.04685 8.83419e-05 985.013 273.12 5.02446 5.02391 -0.00179543 -0.00584331 1.42864e+06 
233 -0.04675 8.83423e-05 985.016 273.119 5.02448 5.02396 0.0641408 0.10221 1.42856e+06 
234 -0.04665 8.83426e-05 985.013 273.121 5.02452 5.02419 -0.00449354 -0.0723251 1.42869e+06 
235 -0.04655 8.83425e-05 985.011 273.123 5.02456 5.02437 -0.0400374 -0.187854 1.42885e+06 
236 -0.04645 8.83427e-05 985.013 273.121 5.02453 5.02421 -0.0262458 -0.120502 1.4287e+06 
237 -0.04635 8.83422e-05 985.011 273.122 5.02452 5.02422 -0.0352529 -0.147981 1.42872e+06 
238 -0.04625 8.83424e-05 985.015 273.121 5.02452 5.02417 0.00083203 -0.0855766 1.42861e+06 
239 -0.04615 8.83423e-05 985.012 273.124 5.02457 5.02422 -0.0644104 -0.244893 1.42877e+06 
240 -0.04605 8.83417e-05 985.013 273.122 5.0245 5.02407 -0.016651 -0.126001 1.4286e+06 
241 -0.04595 8.83417e-05 985.015 273.12 5.02445 5.02404 0.0466628 -0.0587687 1.42849e+06 
242 -0.04585 8.83417e-05 985.015 273.115 5.02436 5.02374 0.121625 0.106405 1.42822e+06 
243 -0.04575 8.83417e-05 985.019 273.116 5.02438 5.02379 0.126067 0.10016 1.42826e+06 
244 -0.04565 8.83422e-05 985.015 273.117 5.02442 5.02392 0.0652059 0.045045 1.42836e+06 
245 -0.04555 8.83412e-05 985.017 273.112 5.02428 5.02369 0.191849 0.233959 1.4281e+06 
246 -0.04545 8.83417e-05 985.018 273.113 5.02432 5.02367 0.219855 0.298441 1.42803e+06 
247 -0.04535 8.83423e-05 985.017 273.114 5.02439 5.02385 0.158342 0.229107 1.42818e+06 
248 -0.04525 8.83421e-05 985.015 273.117 5.02442 5.02405 0.116966 0.0955789 1.42828e+06 
249 -0.04515 8.83421e-05 985.013 273.117 5.02443 5.02402 0.134218 0.159064 1.42826e+06 
250 -0.04505 8.83418e-05 985.015 273.116 5.02439 5.0239 0.155383 0.191359 1.42823e+06 
257 -0.04435 8.83442e-05 985.005 273.124 5.02468 5.0248 -0.0230433 -0.185958 1.42895e+06 
258 -0.04425 8.83433e-05 985.004 273.128 5.0247 5.02481 -0.0424527 -0.214935 1.42898e+06 
259 -0.04415 8.83443e-05 985.003 273.124 5.02468 5.02477 -0.0463 -0.18523 1.42893e+06 
260 -0.04405 8.83435e-05 985 273.131 5.02476 5.02495 -0.147739 -0.369068 1.42922e+06 
261 -0.04395 8.83443e-05 985.002 273.134 5.02487 5.02516 -0.232429 -0.52494 1.42938e+06 
262 -0.04385 8.83439e-05 985.002 273.131 5.02477 5.02501 -0.169761 -0.379726 1.42921e+06 
263 -0.04375 8.83434e-05 985.001 273.129 5.02471 5.02479 -0.0559108 -0.131044 1.42898e+06 
264 -0.04365 8.83439e-05 985.003 273.127 5.02471 5.02496 -0.085403 -0.19278 1.42905e+06 
265 -0.04355 8.83434e-05 985 273.131 5.02475 5.02501 -0.120725 -0.249303 1.42918e+06 
266 -0.04345 8.83438e-05 985.002 273.129 5.02474 5.02499 -0.0809833 -0.21034 1.42913e+06 
251 -0.04495 8.8343e-05 985.014 273.122 5.02457 5.02424 0.0255035 -0.00422183 1.42858e+06 
252 -0.04485 8.83428e-05 985.011 273.122 5.02455 5.02431 0.02252 -0.0798381 1.42864e+06 
253 -0.04475 8.8343e-05 985.007 273.125 5.02463 5.02457 -0.10401 -0.305961 1.42893e+06 
254 -0.04465 8.83432e-05 985.008 273.123 5.02459 5.02443 -0.0381153 -0.149557 1.42873e+06 
255 -0.04455 8.83433e-05 985.006 273.126 5.02466 5.02463 -0.0279512 -0.175758 1.42887e+06 
256 -0.04445 8.83431e-05 985.006 273.122 5.02457 5.02451 0.0216206 -0.0831636 1.42875e+06 
274 -0.04265 8.83427e-05 985.01 273.121 5.02453 5.02425 0.0229075 0.0162574 1.42871e+06 
267 -0.04335 8.83435e-05 984.999 273.131 5.02475 5.02501 -0.126559 -0.28533 1.42917e+06 
268 -0.04325 8.83433e-05 985 273.129 5.02471 5.02505 -0.0907978 -0.278628 1.42915e+06 
269 -0.04315 8.83441e-05 985.001 273.13 5.02477 5.02489 -0.0798538 -0.208863 1.42917e+06 
270 -0.04305 8.83432e-05 985.005 273.126 5.02464 5.02467 -0.0100611 -0.0756378 1.42895e+06 
271 -0.04295 8.83431e-05 985.005 273.128 5.02468 5.02473 -0.0526563 -0.197033 1.42905e+06 
272 -0.04285 8.83433e-05 985.005 273.125 5.02464 5.02466 -0.0416897 -0.158765 1.42897e+06 
273 -0.04275 8.83434e-05 985.003 273.13 5.02474 5.02476 -0.0644396 -0.184977 1.42906e+06 
275 -0.04255 8.83422e-05 985.011 273.119 5.02446 5.02403 0.121779 0.125058 1.42853e+06 
276 -0.04245 8.83428e-05 985.008 273.122 5.02455 5.02425 0.0175658 -0.043566 1.42875e+06 
277 -0.04235 8.83433e-05 985.011 273.121 5.02455 5.0243 0.0388692 0.0422757 1.42874e+06 
278 -0.04225 8.83431e-05 985.007 273.12 5.02454 5.02435 0.0275733 -0.020528 1.42881e+06 
279 -0.04215 8.83431e-05 985.011 273.12 5.02454 5.0242 0.0700104 0.0941856 1.42873e+06 
280 -0.04205 8.83423e-05 985.012 273.116 5.02441 5.02392 0.104427 0.190855 1.42858e+06 
281 -0.04195 8.8343e-05 985.012 273.119 5.02451 5.02417 0.0394116 0.0616069 1.42878e+06 
282 -0.04185 8.8343e-05 985.01 273.12 5.02454 5.02442 0.0338842 -0.0229892 1.42884e+06 
283 -0.04175 8.83427e-05 985.006 273.122 5.02455 5.02452 0.000919259 -0.123441 1.42894e+06 
284 -0.04165 8.83424e-05 985.007 273.122 5.02453 5.02465 0.0133649 -0.175301 1.42893e+06 
285 -0.04155 8.83438e-05 985.004 273.122 5.02461 5.02488 -0.0233924 -0.246539 1.42911e+06 
286 -0.04145 8.83426e-05 985.008 273.121 5.02453 5.02466 -0.018 -0.197754 1.429e+06 
287 -0.04135 8.83423e-05 985.007 273.121 5.02452 5.02462 -0.00203881 -0.13974 1.42895e+06 
288 -0.04125 8.83429e-05 985.009 273.12 5.02453 5.02466 0.00494855 -0.145314 1.42893e+06 
289 -0.04115 8.83426e-05 985.006 273.124 5.02458 5.02472 -0.00445886 -0.148448 1.429e+06 
290 -0.04105 8.83418e-05 985.003 273.124 5.02453 5.02485 -0.0557072 -0.314072 1.4291e+06 
291 -0.04095 8.83433e-05 985.003 273.125 5.02465 5.025 -0.085868 -0.372444 1.42913e+06 
292 -0.04085 8.83429e-05 985.006 273.123 5.02458 5.02483 -0.0507881 -0.299262 1.42901e+06 
293 -0.04075 8.83425e-05 985.002 273.13 5.02468 5.02507 -0.134691 -0.451418 1.42927e+06 
294 -0.04065 8.83426e-05 984.998 273.135 5.02478 5.02534 -0.312424 -0.712474 1.42961e+06 
295 -0.04055 8.83431e-05 985.004 273.128 5.02468 5.02501 -0.145199 -0.315633 1.42923e+06 
296 -0.04045 8.83423e-05 985.008 273.122 5.02453 5.02445 -0.00592052 -0.0144022 1.42879e+06 
297 -0.04035 8.8342e-05 985.01 273.122 5.0245 5.02433 0.0677655 0.0606224 1.42867e+06 
298 -0.04025 8.83429e-05 985.007 273.123 5.02458 5.02452 0.0028184 -0.0762591 1.42888e+06 
299 -0.04015 8.83426e-05 985.002 273.126 5.02462 5.02472 -0.0833764 -0.285349 1.42908e+06 
300 -0.04005 8.83432e-05 985.005 273.126 5.02465 5.02477 -0.106043 -0.331512 1.42912e+06 
301 -0.03995 8.8343e-05 985.004 273.126 5.02465 5.02468 -0.0714185 -0.222442 1.42902e+06 
302 -0.03985 8.83425e-05 985.005 273.128 5.02464 5.02466 -0.0623032 -0.252622 1.42899e+06 
303 -0.03975 8.83438e-05 985.003 273.127 5.0247 5.02484 -0.123092 -0.42483 1.42916e+06 
304 -0.03965 8.83426e-05 985.003 273.126 5.02461 5.02458 -0.0191219 -0.229805 1.42889e+06 
305 -0.03955 8.83444e-05 985.006 273.124 5.02469 5.02468 -0.0565424 -0.268618 1.42893e+06 
306 -0.03945 8.83429e-05 985.007 273.125 5.02461 5.02454 -0.00706388 -0.11468 1.42886e+06 
307 -0.03935 8.8343e-05 985.006 273.123 5.02458 5.02453 0.00926924 -0.0603733 1.42878e+06 
308 -0.03925 8.83435e-05 985.01 273.12 5.02456 5.02435 -0.0221381 -0.0885077 1.42871e+06 
309 -0.03915 8.83433e-05 985.006 273.127 5.02468 5.02462 -0.10337 -0.27296 1.42898e+06 
310 -0.03905 8.83424e-05 985.012 273.117 5.02444 5.02391 0.0997895 0.184588 1.42835e+06 
311 -0.03895 8.83433e-05 985.013 273.118 5.02451 5.0241 0.101243 0.10834 1.42837e+06 
312 -0.03885 8.83428e-05 985.01 273.119 5.0245 5.02404 0.0450281 0.0239978 1.42844e+06 
313 -0.03875 8.83426e-05 985.011 273.118 5.02447 5.02403 0.0991005 0.0828202 1.42843e+06 
321 -0.03795 8.83419e-05 985.018 273.115 5.02438 5.02361 0.126359 0.193687 1.42846e+06 
322 -0.03785 8.83418e-05 985.021 273.11 5.02428 5.02328 0.229002 0.350748 1.42819e+06 
323 -0.03775 8.8342e-05 985.02 273.112 5.02433 5.0234 0.172062 0.251225 1.42833e+06 
324 -0.03765 8.83419e-05 985.024 273.109 5.02426 5.02326 0.25506 0.405513 1.42811e+06 
325 -0.03755 8.83413e-05 985.021 273.112 5.02428 5.0233 0.195323 0.356693 1.42822e+06 
326 -0.03745 8.83418e-05 985.019 273.114 5.02435 5.02348 0.155413 0.264793 1.42836e+06 
327 -0.03735 8.83422e-05 985.015 273.116 5.02442 5.02369 0.126997 0.149931 1.42852e+06 
328 -0.03725 8.83419e-05 985.017 273.118 5.02443 5.0238 0.0890066 0.0494909 1.42867e+06 
314 -0.03865 8.83426e-05 985.011 273.12 5.0245 5.02416 0.050904 -0.023303 1.42856e+06 
315 -0.03855 8.83426e-05 985.012 273.118 5.02446 5.02394 0.123128 0.0922701 1.42844e+06 
316 -0.03845 8.83427e-05 985.014 273.116 5.02444 5.02378 0.123489 0.202405 1.42836e+06 
317 -0.03835 8.83421e-05 985.013 273.117 5.02442 5.02376 0.10981 0.197916 1.42843e+06 
318 -0.03825 8.83428e-05 985.016 273.118 5.02449 5.02388 0.0568732 0.0817698 1.42866e+06 
319 -0.03815 8.83423e-05 985.016 273.118 5.02445 5.02376 0.0839085 0.130302 1.4286e+06 
320 -0.03805 8.83426e-05 985.015 273.118 5.02446 5.02378 0.0726383 0.0771079 1.42858e+06 
342 -0.03585 8.83418e-05 985.018 273.113 5.02433 5.02362 0.107974 0.213229 1.42853e+06 
329 -0.03715 8.83423e-05 985.017 273.115 5.0244 5.02376 0.0875095 0.0892889 1.42865e+06 
330 -0.03705 8.83416e-05 985.02 273.111 5.02428 5.02353 0.201086 0.300364 1.42842e+06 
331 -0.03695 8.83416e-05 985.023 273.11 5.02427 5.02329 0.258857 0.437716 1.42824e+06 
332 -0.03685 8.83415e-05 985.023 273.11 5.02426 5.02333 0.196387 0.290697 1.42838e+06 
333 -0.03675 8.83419e-05 985.02 273.117 5.02442 5.0237 0.0221643 -0.00341977 1.42874e+06 