ITEM: TIMESTEP
10000
ITEM: NUMBER OF CELLS
1000
ITEM: BOX BOUNDS os pp pp
-0.07 0.03
-0.001 0.001
-0.001 0.001
ITEM: CELLS id f_1[1] f_1[2] f_1[3] f_1[4] f_1[5] f_1[6] f_1[7] f_1[8] f_1[9] 
1 -0.06995 8.8343e-05 985 273.161 5.02528 5.02497 -0.687772 -1.34043 1.4285e+06 
2 -0.06985 8.83436e-05 985 273.161 5.02532 5.02515 -0.717837 -1.41002 1.42863e+06 
3 -0.06975 8.83429e-05 985.002 273.161 5.02529 5.02506 -0.690104 -1.31623 1.42854e+06 
4 -0.06965 8.83431e-05 985.002 273.164 5.02535 5.025 -0.750409 -1.39178 1.42872e+06 
5 -0.06955 8.83436e-05 985.005 273.16 5.02531 5.02485 -0.679164 -1.24727 1.42853e+06 
6 -0.06945 8.83423e-05 985.003 273.164 5.02529 5.02494 -0.71625 -1.33461 1.42869e+06 
7 -0.06935 8.83429e-05 985.002 273.166 5.02536 5.02499 -0.775557 -1.42448 1.42876e+06 
8 -0.06925 8.83427e-05 985.003 273.161 5.02527 5.02483 -0.64403 -1.18858 1.42853e+06 
9 -0.06915 8.83435e-05 985.005 273.157 5.02523 5.02478 -0.598364 -1.07364 1.4284e+06 
10 -0.06905 8.83424e-05 985.004 273.161 5.02525 5.02485 -0.643617 -1.288 1.42857e+06 
11 -0.06895 8.83427e-05 985.006 273.152 5.0251 5.02446 -0.477296 -0.943345 1.42818e+06 
12 -0.06885 8.83424e-05 985.008 273.154 5.02512 5.02455 -0.503977 -1.03477 1.4283e+06 
13 -0.06875 8.83435e-05 985.008 273.154 5.02518 5.02471 -0.538205 -1.10719 1.42842e+06 
14 -0.06865 8.83425e-05 985.006 273.153 5.0251 5.02455 -0.533111 -1.05796 1.42839e+06 
15 -0.06855 8.83428e-05 985.004 273.159 5.02523 5.02483 -0.622033 -1.22667 1.42867e+06 
16 -0.06845 8.83431e-05 985.003 273.158 5.02523 5.02488 -0.586627 -1.1354 1.42859e+06 
17 -0.06835 8.83425e-05 985.005 273.157 5.02518 5.02471 -0.568724 -1.05186 1.42855e+06 
18 -0.06825 8.83428e-05 985.005 273.155 5.02517 5.02466 -0.520955 -0.94452 1.42848e+06 
19 -0.06815 8.83427e-05 985.002 273.16 5.02525 5.02477 -0.591444 -1.0728 1.42868e+06 
20 -0.06805 8.83429e-05 985.005 273.157 5.02521 5.02477 -0.604067 -1.07211 1.42866e+06 
21 -0.06795 8.83434e-05 985.008 273.156 5.0252 5.02453 -0.521347 -0.84627 1.42844e+06 
22 -0.06785 8.8342e-05 985.005 273.155 5.02512 5.02453 -0.566016 -0.949392 1.42853e+06 
23 -0.06775 8.83426e-05 985.009 273.156 5.02517 5.02461 -0.498144 -0.802995 1.42847e+06 
24 -0.06765 8.83427e-05 985.006 273.153 5.02512 5.0246 -0.473261 -0.778453 1.42837e+06 
25 -0.06755 8.83427e-05 985.007 273.153 5.02512 5.02459 -0.439628 -0.634271 1.4283e+06 
26 -0.06745 8.83424e-05 985.006 273.153 5.02511 5.02456 -0.489371 -0.735871 1.42839e+06 
27 -0.06735 8.8343e-05 985.007 273.155 5.02518 5.02468 -0.503886 -0.829467 1.42849e+06 
28 -0.06725 8.83428e-05 985.006 273.154 5.02515 5.02467 -0.519121 -0.8149 1.42853e+06 
29 -0.06715 8.83423e-05 985.007 273.153 5.0251 5.02447 -0.431044 -0.639545 1.42832e+06 
30 -0.06705 8.83429e-05 985.004 273.156 5.02518 5.02469 -0.495733 -0.759134 1.42849e+06 
31 -0.06695 8.83432e-05 985.003 273.159 5.02526 5.02494 -0.560679 -0.937087 1.42869e+06 
32 -0.06685 8.83425e-05 985.005 273.159 5.02522 5.02478 -0.548202 -0.942071 1.42864e+06 
33 -0.06675 8.83425e-05 985.005 273.157 5.02518 5.02475 -0.582108 -0.993337 1.42868e+06 
34 -0.06665 8.83425e-05 985.005 273.157 5.02519 5.02477 -0.540752 -0.954428 1.42866e+06 
35 -0.06655 8.83423e-05 985.008 273.155 5.02514 5.02467 -0.454841 -0.832396 1.42855e+06 
36 -0.06645 8.83428e-05 985.008 273.149 5.02505 5.02445 -0.367043 -0.704063 1.42837e+06 
37 -0.06635 8.83422e-05 985.01 273.15 5.02505 5.02436 -0.383889 -0.702292 1.42834e+06 
38 -0.06625 8.83428e-05 985.005 273.152 5.02512 5.02465 -0.426657 -0.822783 1.42861e+06 
39 -0.06615 8.83425e-05 985.009 273.15 5.02506 5.02443 -0.393063 -0.790819 1.42846e+06 
40 -0.06605 8.83434e-05 985.005 273.154 5.02518 5.02486 -0.45516 -0.974148 1.42877e+06 
41 -0.06595 8.83416e-05 985.008 273.15 5.02501 5.0245 -0.375777 -0.75267 1.42856e+06 
42 -0.06585 8.83431e-05 985.008 273.149 5.02507 5.02442 -0.329009 -0.603068 1.42848e+06 
43 -0.06575 8.83421e-05 985.008 273.152 5.02507 5.02448 -0.411185 -0.666553 1.42863e+06 
44 -0.06565 8.83434e-05 985.001 273.16 5.02529 5.025 -0.591094 -1.02949 1.42913e+06 
45 -0.06555 8.83435e-05 985.002 273.157 5.02524 5.02491 -0.535623 -0.949828 1.42904e+06 
46 -0.06545 8.83432e-05 985.004 273.153 5.02515 5.02459 -0.393128 -0.643902 1.42871e+06 
47 -0.06535 8.83429e-05 985.004 273.158 5.02522 5.02477 -0.498183 -0.869773 1.42894e+06 
48 -0.06525 8.83429e-05 985.004 273.155 5.02517 5.02466 -0.460524 -0.809626 1.42886e+06 
49 -0.06515 8.83431e-05 985.004 273.155 5.02518 5.02467 -0.404727 -0.704674 1.42877e+06 
50 -0.06505 8.83426e-05 985.009 273.151 5.02509 5.02442 -0.356016 -0.555495 1.42858e+06 
51 -0.06495 8.83424e-05 985.007 273.148 5.025 5.02431 -0.325579 -0.448854 1.42848e+06 
52 -0.06485 8.8343e-05 985.005 273.153 5.02514 5.02466 -0.383053 -0.610453 1.42872e+06 
53 -0.06475 8.83424e-05 985.005 273.152 5.02508 5.02456 -0.38406 -0.589708 1.42869e+06 
54 -0.06465 8.83429e-05 985.004 273.153 5.02512 5.02476 -0.415771 -0.713249 1.42883e+06 
55 -0.06455 8.83431e-05 985.005 273.152 5.02513 5.02477 -0.424919 -0.730868 1.42888e+06 
56 -0.06445 8.83429e-05 985.001 273.154 5.02515 5.02478 -0.41374 -0.690845 1.42887e+06 
57 -0.06435 8.83426e-05 985.006 273.151 5.02507 5.02469 -0.358338 -0.560877 1.42874e+06 
58 -0.06425 8.83432e-05 985.004 273.153 5.02514 5.02466 -0.350094 -0.526858 1.42872e+06 
59 -0.06415 8.83432e-05 985.006 273.151 5.02512 5.02464 -0.324242 -0.507917 1.42863e+06 
60 -0.06405 8.83424e-05 985.001 273.153 5.02511 5.02477 -0.375307 -0.597428 1.42876e+06 
61 -0.06395 8.83426e-05 985.006 273.149 5.02504 5.02459 -0.293219 -0.442486 1.42857e+06 
62 -0.06385 8.83433e-05 985.004 273.154 5.02517 5.02475 -0.314717 -0.542565 1.42872e+06 
63 -0.06375 8.83428e-05 985.004 273.148 5.02503 5.02452 -0.260336 -0.388661 1.42851e+06 
69 -0.06315 8.83427e-05 985.008 273.147 5.02501 5.0243 -0.23565 -0.290597 1.4285e+06 
65 -0.06355 8.8343e-05 985.01 273.145 5.02499 5.0242 -0.145094 -0.118823 1.42829e+06 
66 -0.06345 8.83417e-05 985.007 273.147 5.02495 5.0242 -0.222267 -0.27593 1.42847e+06 
67 -0.06335 8.83424e-05 985.007 273.147 5.025 5.02429 -0.231208 -0.297598 1.42852e+06 
68 -0.06325 8.83424e-05 985.008 273.144 5.02494 5.0242 -0.18681 -0.213674 1.42839e+06 
70 -0.06305 8.83421e-05 985.006 273.15 5.02503 5.02435 -0.306843 -0.431898 1.42867e+06 
71 -0.06295 8.83424e-05 985.01 273.148 5.02502 5.02431 -0.293277 -0.405437 1.42866e+06 
72 -0.06285 8.83417e-05 985.009 273.151 5.02503 5.02448 -0.348197 -0.562648 1.42882e+06 
73 -0.06275 8.83419e-05 985.006 273.152 5.02506 5.02452 -0.369207 -0.614382 1.4289e+06 
74 -0.06265 8.83423e-05 985.007 273.15 5.02504 5.02438 -0.303147 -0.468901 1.42878e+06 
75 -0.06255 8.83418e-05 985.009 273.148 5.02497 5.02433 -0.278364 -0.421611 1.42877e+06 
76 -0.06245 8.83418e-05 985.009 273.148 5.02498 5.02443 -0.251564 -0.447653 1.42885e+06 
77 -0.06235 8.83419e-05 985.007 273.149 5.02501 5.02438 -0.247275 -0.450961 1.4288e+06 
78 -0.06225 8.83419e-05 985.01 273.141 5.02485 5.02407 -0.140872 -0.232864 1.42849e+06 
64 -0.06365 8.83427e-05 985.009 273.146 5.02498 5.02423 -0.170523 -0.151684 1.42831e+06 
79 -0.06215 8.83423e-05 985.013 273.144 5.02492 5.0242 -0.155736 -0.249103 1.42855e+06 
80 -0.06205 8.83427e-05 985.01 273.144 5.02494 5.02417 -0.140337 -0.253426 1.42853e+06 
81 -0.06195 8.83423e-05 985.011 273.141 5.02489 5.02405 -0.0926707 -0.158466 1.42843e+06 
82 -0.06185 8.83422e-05 985.009 273.142 5.02489 5.02416 -0.133559 -0.258193 1.42856e+06 
83 -0.06175 8.83427e-05 985.009 273.145 5.02497 5.02433 -0.143973 -0.300114 1.42866e+06 
84 -0.06165 8.83422e-05 985.008 273.144 5.02493 5.02433 -0.156814 -0.289121 1.42874e+06 
85 -0.06155 8.83428e-05 985.006 273.148 5.02504 5.02461 -0.244922 -0.49723 1.42899e+06 
86 -0.06145 8.83427e-05 985.001 273.147 5.02501 5.02464 -0.195685 -0.449495 1.42895e+06 
87 -0.06135 8.83427e-05 985.004 273.146 5.02499 5.0247 -0.198567 -0.458572 1.42891e+06 
88 -0.06125 8.83427e-05 985.004 273.145 5.02497 5.02451 -0.101244 -0.2503 1.42872e+06 
89 -0.06115 8.83431e-05 985.002 273.146 5.02501 5.02479 -0.164365 -0.344155 1.42895e+06 
90 -0.06105 8.83429e-05 985.002 273.142 5.02492 5.02454 -0.0389699 -0.165117 1.42867e+06 
91 -0.06095 8.8343e-05 984.999 273.145 5.025 5.02481 -0.0954833 -0.324689 1.42886e+06 
92 -0.06085 8.83434e-05 985.002 273.145 5.02501 5.02478 -0.0548718 -0.289907 1.42882e+06 
93 -0.06075 8.83429e-05 985.003 273.14 5.0249 5.02446 -0.0109495 -0.150691 1.42861e+06 
94 -0.06065 8.83432e-05 985.003 273.142 5.02495 5.02444 -0.0347949 -0.136928 1.42862e+06 
95 -0.06055 8.8343e-05 985.002 273.148 5.02505 5.02473 -0.126838 -0.300511 1.42899e+06 
96 -0.06045 8.83432e-05 985 273.148 5.02506 5.02471 -0.137277 -0.312244 1.42894e+06 
97 -0.06035 8.83433e-05 985 273.148 5.02507 5.0248 -0.141717 -0.343867 1.429e+06 
98 -0.06025 8.83426e-05 985.003 273.145 5.02496 5.02459 -0.0489634 -0.162463 1.42876e+06 
99 -0.06015 8.83432e-05 985.004 273.141 5.02493 5.02446 -0.0119661 -0.0740158 1.42865e+06 
100 -0.06005 8.83429e-05 985.006 273.138 5.02486 5.0243 0.0769618 0.030873 1.42846e+06 
101 -0.05995 8.83432e-05 985.006 273.142 5.02495 5.02439 0.0186826 -0.0760324 1.42864e+06 
102 -0.05985 8.83422e-05 985.004 273.141 5.02486 5.02425 0.0184902 -0.0564538 1.42857e+06 
103 -0.05975 8.8343e-05 985.009 273.139 5.02489 5.02419 0.0591735 0.0265985 1.4285e+06 
104 -0.05965 8.83429e-05 985.003 273.143 5.02496 5.02441 -0.0150624 -0.139062 1.42868e+06 
105 -0.05955 8.83432e-05 985.002 273.145 5.025 5.02468 -0.0574088 -0.255514 1.42883e+06 
106 -0.05945 8.83433e-05 985.002 273.149 5.02508 5.02484 -0.0807285 -0.373239 1.42892e+06 
107 -0.05935 8.83428e-05 984.998 273.153 5.02513 5.02517 -0.240831 -0.711488 1.42931e+06 
108 -0.05925 8.83434e-05 985.002 273.144 5.025 5.02476 -0.0678004 -0.383333 1.42893e+06 
109 -0.05915 8.8343e-05 985.003 273.146 5.02502 5.02476 -0.053311 -0.338869 1.42898e+06 
110 -0.05905 8.83434e-05 985 273.145 5.02501 5.02495 -0.0589485 -0.42473 1.42897e+06 
111 -0.05895 8.83436e-05 984.999 273.146 5.02505 5.02501 -0.0648897 -0.383516 1.42909e+06 
112 -0.05885 8.83431e-05 985.001 273.146 5.02502 5.02499 -0.0729857 -0.440142 1.42912e+06 
113 -0.05875 8.83434e-05 984.998 273.147 5.02505 5.02507 -0.0790929 -0.402202 1.42917e+06 
114 -0.05865 8.83436e-05 985.001 273.142 5.02498 5.0248 0.0201565 -0.197076 1.42887e+06 
115 -0.05855 8.83434e-05 984.999 273.147 5.02504 5.02511 -0.0949291 -0.38469 1.42918e+06 
116 -0.05845 8.83433e-05 985 273.146 5.02503 5.025 -0.0461422 -0.314878 1.42903e+06 
117 -0.05835 8.83437e-05 984.998 273.145 5.02504 5.02506 -0.0670878 -0.323771 1.42912e+06 
118 -0.05825 8.83429e-05 985.004 273.142 5.02492 5.02475 0.0613093 -0.0661263 1.42883e+06 
119 -0.05815 8.83439e-05 985.004 273.142 5.02498 5.02471 0.0417198 -0.0323366 1.42884e+06 
120 -0.05805 8.8343e-05 985.005 273.14 5.0249 5.02456 0.0557869 -0.0611369 1.42878e+06 
121 -0.05795 8.83426e-05 985.007 273.139 5.02485 5.02448 0.0786755 0.00275402 1.42875e+06 
122 -0.05785 8.83435e-05 985.007 273.139 5.0249 5.0245 0.060719 -0.0178602 1.42874e+06 
123 -0.05775 8.83429e-05 985.007 273.136 5.02482 5.02442 0.147438 0.0938856 1.42862e+06 
124 -0.05765 8.83432e-05 985.004 273.138 5.02487 5.02458 0.0852702 -0.056058 1.4288e+06 
125 -0.05755 8.83436e-05 985.006 273.141 5.02494 5.0246 0.0738136 -0.0568635 1.42885e+06 
137 -0.05635 8.83431e-05 985.011 273.134 5.0248 5.02412 0.234191 0.306887 1.42851e+06 
129 -0.05715 8.83436e-05 985.004 273.145 5.02502 5.0248 0.00135361 -0.199343 1.42906e+06 
130 -0.05705 8.83433e-05 985.005 273.138 5.02487 5.02459 0.101849 -0.0369587 1.42878e+06 
131 -0.05695 8.83438e-05 984.999 273.143 5.02499 5.02486 -0.0014964 -0.183517 1.42902e+06 
132 -0.05685 8.83438e-05 985 273.145 5.02503 5.02496 -0.0477091 -0.300376 1.42926e+06 
133 -0.05675 8.8344e-05 985.003 273.142 5.025 5.02473 0.0328415 -0.146031 1.42907e+06 
134 -0.05665 8.83427e-05 985.004 273.14 5.02487 5.02453 0.115008 0.0331257 1.42888e+06 
135 -0.05655 8.83434e-05 985.004 273.137 5.02486 5.02449 0.118469 0.0268482 1.42881e+06 
136 -0.05645 8.83433e-05 985.01 273.134 5.0248 5.02424 0.244941 0.260185 1.4286e+06 
138 -0.05625 8.83424e-05 985.013 273.131 5.02469 5.0239 0.285626 0.387847 1.42834e+06 
139 -0.05615 8.83437e-05 985.006 273.141 5.02496 5.02453 0.0463885 -0.063676 1.42901e+06 
140 -0.05605 8.83427e-05 985.011 273.137 5.02482 5.02418 0.139427 0.132157 1.42876e+06 
141 -0.05595 8.83431e-05 985.008 273.14 5.0249 5.0243 0.0859874 0.0343933 1.42888e+06 
126 -0.05745 8.83428e-05 985.006 273.14 5.02488 5.0245 0.0499218 -0.0316743 1.42886e+06 
127 -0.05735 8.83438e-05 985.005 273.143 5.02499 5.02476 -0.0386731 -0.213296 1.42909e+06 
128 -0.05725 8.8343e-05 985.004 273.145 5.02499 5.02475 -0.0434841 -0.215028 1.42909e+06 
142 -0.05585 8.83431e-05 985.009 273.139 5.02489 5.0244 0.0653309 -0.0108912 1.42893e+06 
143 -0.05575 8.83433e-05 985.007 273.144 5.02499 5.02462 -0.000617856 -0.100695 1.42914e+06 
144 -0.05565 8.8343e-05 985.005 273.145 5.02499 5.02467 -0.072 -0.199751 1.42923e+06 
145 -0.05555 8.83433e-05 985.01 273.145 5.02501 5.02449 -0.0134427 -0.0711737 1.42908e+06 
146 -0.05545 8.83433e-05 985.008 273.147 5.02504 5.02463 -0.0764595 -0.202831 1.42928e+06 
147 -0.05535 8.83424e-05 985.008 273.144 5.02493 5.02444 -0.0645794 -0.109849 1.4291e+06 
148 -0.05525 8.83431e-05 985.013 273.141 5.02493 5.0242 0.0595983 0.0981526 1.42885e+06 
149 -0.05515 8.83428e-05 985.009 273.141 5.02491 5.02419 0.0085987 -0.0089497 1.42889e+06 
150 -0.05505 8.83427e-05 985.01 273.142 5.02491 5.02437 -0.00371471 -0.097479 1.42902e+06 
151 -0.05495 8.8343e-05 985.01 273.142 5.02493 5.02433 0.0498083 0.0305169 1.42889e+06 
152 -0.05485 8.8343e-05 985.011 273.138 5.02486 5.02425 0.0855469 0.0870491 1.42876e+06 
153 -0.05475 8.83434e-05 985.008 273.142 5.02497 5.02454 0.0454368 0.0165123 1.42894e+06 
154 -0.05465 8.83436e-05 985.003 273.145 5.02503 5.02462 -0.0310798 -0.13401 1.42905e+06 
155 -0.05455 8.83429e-05 985.008 273.142 5.02493 5.02448 0.0377311 0.00163507 1.42891e+06 
156 -0.05445 8.83431e-05 985.01 273.141 5.02492 5.02433 0.0738181 0.0970069 1.4288e+06 
157 -0.05435 8.8343e-05 985.011 273.139 5.02488 5.02431 0.0664693 0.0854342 1.42879e+06 
158 -0.05425 8.83431e-05 985.008 273.141 5.02493 5.0242 0.0677053 0.116324 1.42876e+06 
159 -0.05415 8.83426e-05 985.011 273.142 5.0249 5.02414 0.0317049 0.0957264 1.42878e+06 
160 -0.05405 8.83428e-05 985.008 273.147 5.02501 5.0244 -0.0598256 -0.191118 1.42902e+06 
161 -0.05395 8.83432e-05 985.01 273.145 5.025 5.02431 -0.0833791 -0.134377 1.429e+06 
162 -0.05385 8.8343e-05 985.01 273.143 5.02495 5.02414 0.0223604 0.0334025 1.42878e+06 
163 -0.05375 8.83426e-05 985.008 273.144 5.02495 5.0243 -0.0269963 -0.0655789 1.42889e+06 
164 -0.05365 8.83427e-05 985.008 273.143 5.02494 5.02425 -0.0392923 -0.105353 1.42891e+06 
165 -0.05355 8.83432e-05 985.008 273.152 5.02512 5.02451 -0.14084 -0.277234 1.42921e+06 
166 -0.05345 8.83431e-05 985.008 273.141 5.02492 5.02421 -0.0152906 -0.0608684 1.42889e+06 
167 -0.05335 8.83427e-05 985.009 273.144 5.02495 5.02435 -0.0319931 -0.120848 1.42901e+06 
168 -0.05325 8.83434e-05 985.007 273.146 5.02504 5.02449 -0.0962795 -0.180978 1.42911e+06 
169 -0.05315 8.83425e-05 985.011 273.141 5.02488 5.02409 0.0532781 0.076051 1.42874e+06 
170 -0.05305 8.8343e-05 985.006 273.144 5.02497 5.02436 6.65935e-05 -0.0868932 1.42893e+06 
171 -0.05295 8.83431e-05 985.008 273.141 5.02492 5.02434 0.0874027 0.0192591 1.42876e+06 
172 -0.05285 8.83433e-05 985.006 273.14 5.02492 5.02439 0.0875389 0.0320727 1.42878e+06 
173 -0.05275 8.83433e-05 985.002 273.146 5.02502 5.0248 -0.0452839 -0.2473 1.42917e+06 
174 -0.05265 8.83435e-05 985 273.148 5.02507 5.0249 -0.0197883 -0.239434 1.42915e+06 
175 -0.05255 8.83436e-05 985.005 273.141 5.02495 5.02463 0.0968729 -0.033455 1.42882e+06 
176 -0.05245 8.83434e-05 985.003 273.143 5.02497 5.02472 0.0665597 -0.0794209 1.42884e+06 
177 -0.05235 8.83436e-05 984.999 273.145 5.02501 5.02494 0.012201 -0.197183 1.42899e+06 
178 -0.05225 8.83437e-05 985.001 273.145 5.02502 5.02503 -0.0699146 -0.345281 1.42918e+06 
179 -0.05215 8.83433e-05 985.001 273.143 5.02498 5.0249 0.054653 -0.13791 1.42892e+06 
180 -0.05205 8.8343e-05 984.999 273.144 5.02497 5.02494 0.0333556 -0.200781 1.429e+06 
181 -0.05195 8.83443e-05 984.999 273.144 5.02504 5.02498 0.000888046 -0.216309 1.42903e+06 
182 -0.05185 8.83429e-05 985 273.142 5.02493 5.02484 0.0705715 -0.108169 1.42885e+06 
183 -0.05175 8.83434e-05 985.001 273.143 5.02497 5.02478 0.0480775 -0.135911 1.42896e+06 
184 -0.05165 8.83427e-05 985.005 273.14 5.02488 5.02456 0.0946187 -0.0654973 1.42881e+06 
185 -0.05155 8.8343e-05 985.005 273.141 5.02491 5.02457 0.0801743 -0.0773984 1.42883e+06 
186 -0.05145 8.83433e-05 985.005 273.137 5.02487 5.02444 0.194525 0.112594 1.42863e+06 
187 -0.05135 8.8343e-05 985.008 273.133 5.02476 5.02429 0.25612 0.179794 1.42847e+06 
188 -0.05125 8.83432e-05 985.003 273.142 5.02494 5.02478 0.0867816 -0.0972907 1.42889e+06 
193 -0.05075 8.83435e-05 985.005 273.138 5.0249 5.02448 0.128361 0.044733 1.42868e+06 
194 -0.05065 8.83438e-05 984.998 273.144 5.02502 5.02478 -0.0335842 -0.209042 1.42901e+06 
195 -0.05055 8.83432e-05 985.004 273.142 5.02495 5.02443 0.0598069 0.0394623 1.42872e+06 
196 -0.05045 8.8343e-05 985.004 273.142 5.02494 5.02439 0.101223 0.137828 1.42862e+06 
197 -0.05035 8.83428e-05 985.005 273.136 5.02481 5.0241 0.175111 0.275427 1.42838e+06 
198 -0.05025 8.83437e-05 985.004 273.141 5.02495 5.02445 0.0396268 0.0794088 1.42869e+06 
199 -0.05015 8.83433e-05 985.006 273.145 5.02501 5.0243 0.0287011 0.0812504 1.42873e+06 
200 -0.05005 8.83427e-05 985.005 273.139 5.02487 5.02419 0.0831295 0.165213 1.42858e+06 
201 -0.04995 8.83435e-05 985.005 273.141 5.02494 5.02433 0.0688026 0.138482 1.4287e+06 
202 -0.04985 8.83432e-05 985.004 273.144 5.02499 5.0244 0.0523949 0.146556 1.42875e+06 
203 -0.04975 8.83435e-05 985 273.143 5.02498 5.02454 0.0290089 0.093811 1.4288e+06 
189 -0.05115 8.83436e-05 985.001 273.141 5.02495 5.02478 0.0820658 -0.0854682 1.42888e+06 
190 -0.05105 8.83435e-05 985 273.143 5.02498 5.02485 -0.00468329 -0.207722 1.42909e+06 
191 -0.05095 8.83435e-05 985.001 273.144 5.025 5.02485 -0.0423046 -0.298256 1.42913e+06 
192 -0.05085 8.83433e-05 985.004 273.142 5.02494 5.02464 0.0729104 -0.0821535 1.42889e+06 
206 -0.04945 8.83434e-05 985 273.147 5.02505 5.02467 -0.0345047 -0.0266726 1.42896e+06 
204 -0.04965 8.83436e-05 985 273.146 5.02503 5.02465 -0.0518222 -0.0789687 1.42897e+06 
205 -0.04955 8.83431e-05 985 273.146 5.02501 5.02461 0.00465493 0.0105167 1.42888e+06 
207 -0.04935 8.83442e-05 984.997 273.15 5.02515 5.0249 -0.148116 -0.179947 1.42921e+06 
208 -0.04925 8.83433e-05 985.003 273.147 5.02504 5.02463 -0.0645453 -0.00279862 1.42895e+06 
209 -0.04915 8.83437e-05 984.999 273.152 5.02515 5.02488 -0.136632 -0.130058 1.4292e+06 
210 -0.04905 8.83434e-05 984.998 273.148 5.02507 5.0248 -0.106915 -0.118292 1.4291e+06 
211 -0.04895 8.83436e-05 984.998 273.149 5.02509 5.0249 -0.0825074 -0.121574 1.42913e+06 
212 -0.04885 8.83436e-05 985.001 273.146 5.02505 5.02481 -0.068476 -0.0928735 1.42903e+06 
213 -0.04875 8.83432e-05 985.001 273.141 5.02494 5.02451 0.0532177 0.182001 1.42873e+06 
214 -0.04865 8.83437e-05 985.002 273.146 5.02504 5.02469 -0.0109608 0.0890301 1.42888e+06 
215 -0.04855 8.83437e-05 984.999 273.147 5.02507 5.02474 -0.0618209 -0.0135823 1.42896e+06 
216 -0.04845 8.83441e-05 985 273.152 5.02519 5.02486 -0.111636 -0.0990443 1.4291e+06 
217 -0.04835 8.83441e-05 984.999 273.149 5.02512 5.02475 -0.110435 -0.129498 1.42904e+06 
218 -0.04825 8.83432e-05 984.999 273.149 5.02507 5.02478 -0.114271 -0.16482 1.42909e+06 
219 -0.04815 8.83448e-05 985.002 273.148 5.02514 5.02468 -0.0706618 -0.0386136 1.42896e+06 
220 -0.04805 8.83435e-05 985.001 273.144 5.025 5.02449 -0.0264982 -0.00318081 1.42885e+06 
221 -0.04795 8.83435e-05 985.004 273.145 5.02502 5.02449 -0.00359892 0.0737087 1.42878e+06 
222 -0.04785 8.83436e-05 985.002 273.148 5.02508 5.02456 -0.0329062 0.0618494 1.42885e+06 
223 -0.04775 8.83441e-05 985.003 273.144 5.02503 5.02452 -0.0166331 0.0847555 1.42875e+06 
224 -0.04765 8.8343e-05 985.005 273.147 5.02503 5.02448 -0.0479957 0.0141428 1.42878e+06 
225 -0.04755 8.83444e-05 985 273.151 5.02517 5.02472 -0.151475 -0.204948 1.42908e+06 
226 -0.04745 8.83437e-05 985.002 273.151 5.02514 5.0247 -0.100345 -0.135344 1.42895e+06 
227 -0.04735 8.83435e-05 985.001 273.15 5.02511 5.02457 -0.164352 -0.217045 1.429e+06 
228 -0.04725 8.83438e-05 985.001 273.151 5.02514 5.02459 -0.17163 -0.218847 1.42904e+06 
229 -0.04715 8.83439e-05 985.004 273.152 5.02517 5.02464 -0.188971 -0.227655 1.42909e+06 
230 -0.04705 8.83434e-05 985.003 273.149 5.02508 5.0244 -0.0964296 0.0187565 1.42886e+06 
231 -0.04695 8.83437e-05 985.003 273.151 5.02513 5.02453 -0.138589 -0.0894635 1.42897e+06 
232 -0.04685 8.83438e-05 985.001 273.154 5.02519 5.02467 -0.199502 -0.171847 1.4291e+06 
233 -0.04675 8.83438e-05 985.001 273.155 5.02522 5.02485 -0.278277 -0.334601 1.42931e+06 
234 -0.04665 8.83436e-05 984.996 273.158 5.02525 5.02492 -0.286556 -0.397757 1.42939e+06 
235 -0.04655 8.83437e-05 985.001 273.158 5.02526 5.02487 -0.284003 -0.41761 1.42939e+06 
236 -0.04645 8.8344e-05 985.002 273.151 5.02515 5.02451 -0.179651 -0.175536 1.42904e+06 
237 -0.04635 8.83435e-05 985 273.155 5.02519 5.02464 -0.221759 -0.257016 1.42923e+06 
238 -0.04625 8.83434e-05 985.004 273.152 5.02513 5.02446 -0.142352 -0.117367 1.42902e+06 
239 -0.04615 8.83435e-05 985.005 273.145 5.02503 5.02432 -0.0822677 0.0436198 1.42889e+06 
240 -0.04605 8.83435e-05 985.004 273.152 5.02514 5.02435 -0.110852 0.0503287 1.42893e+06 
241 -0.04595 8.83433e-05 985.003 273.151 5.02512 5.02441 -0.140078 0.0059023 1.42901e+06 
242 -0.04585 8.83432e-05 985.005 273.147 5.02504 5.02417 -0.0451774 0.171203 1.42876e+06 
243 -0.04575 8.83432e-05 985.005 273.145 5.02501 5.02414 0.00959371 0.27826 1.42864e+06 
244 -0.04565 8.83442e-05 985.002 273.15 5.02516 5.02455 -0.155166 -0.0144084 1.42904e+06 
245 -0.04555 8.8344e-05 985.001 273.148 5.02511 5.0244 -0.105005 0.0782164 1.42891e+06 
246 -0.04545 8.83435e-05 985 273.151 5.02512 5.02442 -0.15384 -0.00234262 1.42892e+06 
247 -0.04535 8.83433e-05 985.002 273.152 5.02513 5.02442 -0.160412 -0.047893 1.42896e+06 
248 -0.04525 8.83439e-05 985.002 273.149 5.02512 5.02449 -0.0997892 0.0185523 1.42888e+06 
249 -0.04515 8.83434e-05 984.997 273.152 5.02514 5.02459 -0.156334 -0.127815 1.429e+06 
250 -0.04505 8.8344e-05 985.001 273.149 5.02512 5.02454 -0.117445 -0.0439577 1.42896e+06 
257 -0.04435 8.83435e-05 984.997 273.15 5.02511 5.0247 -0.128623 -0.155518 1.42907e+06 
258 -0.04425 8.83443e-05 984.995 273.151 5.02518 5.02495 -0.133121 -0.253229 1.42922e+06 
259 -0.04415 8.83443e-05 984.996 273.148 5.02512 5.02484 -0.0739225 -0.178474 1.42908e+06 
260 -0.04405 8.83427e-05 984.999 273.143 5.02493 5.02447 0.0406995 0.0402643 1.42877e+06 
261 -0.04395 8.83442e-05 985 273.14 5.02497 5.0245 0.0984655 0.116043 1.42864e+06 
262 -0.04385 8.83443e-05 984.997 273.145 5.02506 5.02484 0.00736768 -0.0340134 1.42892e+06 
263 -0.04375 8.83438e-05 984.999 273.142 5.02499 5.02467 0.0964436 0.138432 1.42867e+06 
264 -0.04365 8.83438e-05 984.997 273.144 5.02502 5.02478 0.0404978 0.0788535 1.42883e+06 
265 -0.04355 8.83441e-05 984.997 273.145 5.02506 5.02477 0.000490872 0.0260769 1.42887e+06 
266 -0.04345 8.83446e-05 984.994 273.147 5.02511 5.02496 -0.0794761 -0.0723963 1.42903e+06 
251 -0.04495 8.83442e-05 984.997 273.151 5.02516 5.02467 -0.16605 -0.125232 1.42907e+06 
252 -0.04485 8.83431e-05 984.996 273.152 5.02512 5.0246 -0.145575 -0.0852403 1.42901e+06 
253 -0.04475 8.83441e-05 985.001 273.145 5.02505 5.02443 -0.0359754 0.116669 1.42877e+06 
254 -0.04465 8.83438e-05 984.997 273.15 5.02513 5.02464 -0.128157 -0.117545 1.42904e+06 
255 -0.04455 8.8344e-05 984.997 273.153 5.02519 5.02494 -0.184395 -0.245026 1.42926e+06 
256 -0.04445 8.83439e-05 984.997 273.148 5.02509 5.02467 -0.0966364 -0.101639 1.42901e+06 
274 -0.04265 8.83439e-05 985 273.142 5.02498 5.02445 0.048774 0.118411 1.42885e+06 
267 -0.04335 8.83442e-05 984.997 273.145 5.02505 5.02483 -0.0303746 0.00876366 1.42898e+06 
268 -0.04325 8.83443e-05 984.996 273.147 5.0251 5.0248 -0.068075 -0.000103387 1.429e+06 
269 -0.04315 8.83438e-05 984.999 273.146 5.02506 5.02475 -0.0600732 0.0135715 1.42899e+06 
270 -0.04305 8.83434e-05 985.002 273.142 5.02496 5.02434 -0.0227045 0.0762748 1.42881e+06 
271 -0.04295 8.83441e-05 985 273.146 5.02508 5.02455 -0.0513986 0.0207638 1.42901e+06 
272 -0.04285 8.83437e-05 984.997 273.145 5.02503 5.0246 -0.0598788 0.00730218 1.42904e+06 
273 -0.04275 8.83439e-05 985.001 273.143 5.02501 5.02449 0.0198606 0.0831951 1.4289e+06 
275 -0.04255 8.83442e-05 984.997 273.148 5.02512 5.02481 -0.0735732 -0.0876672 1.42917e+06 
276 -0.04245 8.83441e-05 984.997 273.145 5.02504 5.02466 -0.013483 -0.0147482 1.42898e+06 
277 -0.04235 8.83438e-05 984.999 273.142 5.02497 5.02451 0.025813 0.0432348 1.42888e+06 
278 -0.04225 8.83438e-05 984.999 273.146 5.02505 5.02473 -0.0410457 -0.080108 1.42908e+06 
279 -0.04215 8.83437e-05 984.998 273.145 5.02503 5.02459 0.00926588 -0.0374514 1.429e+06 
280 -0.04205 8.83439e-05 984.997 273.146 5.02506 5.02475 -0.0373497 -0.112802 1.42911e+06 
281 -0.04195 8.83443e-05 984.993 273.149 5.02514 5.02503 -0.133321 -0.318052 1.42936e+06 
282 -0.04185 8.83438e-05 984.994 273.148 5.02508 5.02494 -0.0593033 -0.117633 1.42916e+06 
283 -0.04175 8.83442e-05 984.996 273.149 5.02514 5.02491 -0.0728284 -0.0954532 1.42918e+06 
284 -0.04165 8.83441e-05 984.996 273.146 5.02507 5.02502 -0.0454101 -0.106675 1.42916e+06 
285 -0.04155 8.83443e-05 984.991 273.149 5.02514 5.02525 -0.1001 -0.202925 1.42935e+06 
286 -0.04145 8.8345e-05 984.993 273.147 5.02514 5.02518 -0.060461 -0.150008 1.4293e+06 
287 -0.04135 8.83448e-05 984.988 273.152 5.02522 5.02532 -0.143476 -0.1794 1.42943e+06 
288 -0.04125 8.83443e-05 984.993 273.151 5.02518 5.02506 -0.13658 -0.107897 1.42928e+06 
289 -0.04115 8.83448e-05 984.994 273.147 5.02513 5.0249 -0.0968762 0.027557 1.42917e+06 
290 -0.04105 8.83446e-05 984.996 273.149 5.02515 5.02479 -0.0754445 0.0779031 1.4291e+06 
291 -0.04095 8.83443e-05 984.998 273.146 5.02509 5.02454 -0.0104241 0.232938 1.42888e+06 
292 -0.04085 8.83442e-05 985 273.146 5.02507 5.02452 -0.0335202 0.186217 1.42889e+06 
293 -0.04075 8.83435e-05 985 273.145 5.02503 5.02462 -0.0621303 0.146402 1.42897e+06 
294 -0.04065 8.83445e-05 984.997 273.148 5.02513 5.02463 -0.0680349 0.11576 1.429e+06 
295 -0.04055 8.83445e-05 984.997 273.15 5.02517 5.02467 -0.13806 0.000329331 1.42909e+06 
296 -0.04045 8.83437e-05 985.003 273.147 5.02507 5.0245 -0.0688745 0.164924 1.42889e+06 
297 -0.04035 8.83443e-05 985 273.149 5.02514 5.02462 -0.0833675 0.100764 1.42898e+06 
298 -0.04025 8.83433e-05 985.001 273.147 5.02504 5.02449 -0.0720741 0.133298 1.42889e+06 
299 -0.04015 8.8344e-05 985.003 273.148 5.0251 5.02451 -0.0672535 0.0881561 1.42886e+06 
300 -0.04005 8.83432e-05 985.004 273.143 5.02497 5.0242 0.0204772 0.221927 1.4286e+06 
301 -0.03995 8.83436e-05 985.003 273.144 5.02501 5.02439 -0.0429377 0.108685 1.42881e+06 
302 -0.03985 8.83433e-05 985.002 273.147 5.02504 5.02445 -0.0354241 0.0718556 1.42884e+06 
303 -0.03975 8.83437e-05 985 273.15 5.02512 5.02465 -0.116241 -0.0947287 1.42902e+06 
304 -0.03965 8.83431e-05 985.003 273.15 5.02509 5.02442 -0.0935485 0.00633642 1.42896e+06 
305 -0.03955 8.83429e-05 985.002 273.148 5.02504 5.02452 -0.109331 -0.0598947 1.42901e+06 
306 -0.03945 8.83432e-05 984.997 273.154 5.02516 5.02477 -0.190189 -0.250424 1.42928e+06 
307 -0.03935 8.83435e-05 985.001 273.148 5.02508 5.02459 -0.0811255 -0.0466847 1.42901e+06 
308 -0.03925 8.83433e-05 984.999 273.149 5.02509 5.02469 -0.0833929 -0.0769136 1.42901e+06 
309 -0.03915 8.83434e-05 984.999 273.151 5.02512 5.02473 -0.0964719 -0.106145 1.42908e+06 
310 -0.03905 8.83431e-05 984.999 273.147 5.02503 5.02453 -0.0420289 0.028953 1.42887e+06 
311 -0.03895 8.83434e-05 985.001 273.147 5.02505 5.02465 -0.0286982 -0.00997053 1.42896e+06 
312 -0.03885 8.83431e-05 985 273.147 5.02502 5.0247 -0.0432634 -0.0496903 1.42897e+06 
313 -0.03875 8.83435e-05 984.997 273.15 5.02511 5.02488 -0.0842081 -0.0710828 1.4291e+06 
321 -0.03795 8.8343e-05 985.003 273.142 5.02493 5.0242 0.107105 0.250105 1.4287e+06 
322 -0.03785 8.83425e-05 985.004 273.138 5.02483 5.02412 0.139731 0.259292 1.42861e+06 
323 -0.03775 8.83426e-05 985.005 273.14 5.02488 5.0243 0.0959677 0.137473 1.42875e+06 
324 -0.03765 8.83429e-05 985.003 273.143 5.02494 5.0244 0.0706987 0.0556148 1.4288e+06 
325 -0.03755 8.83427e-05 985.004 273.14 5.02488 5.0243 0.112936 0.126583 1.4287e+06 
326 -0.03745 8.83429e-05 985.005 273.141 5.02491 5.02438 0.119504 0.140539 1.42872e+06 
327 -0.03735 8.83435e-05 985 273.144 5.02501 5.02453 0.0316038 -0.00322802 1.42892e+06 
328 -0.03725 8.83429e-05 985.002 273.141 5.0249 5.02439 0.0508452 0.0719575 1.42885e+06 
314 -0.03865 8.83435e-05 985 273.148 5.02508 5.02474 -0.095447 -0.11297 1.42909e+06 
315 -0.03855 8.83437e-05 984.998 273.149 5.0251 5.02477 -0.0993518 -0.136568 1.42908e+06 
316 -0.03845 8.83427e-05 985.002 273.147 5.02501 5.02453 -0.030138 -0.0169063 1.42896e+06 
317 -0.03835 8.83428e-05 985.005 273.142 5.02492 5.02427 0.0314868 0.171361 1.42873e+06 
318 -0.03825 8.83433e-05 985.002 273.144 5.02498 5.02432 0.0347959 0.16288 1.42879e+06 
319 -0.03815 8.83425e-05 985.003 273.144 5.02493 5.02437 0.0501888 0.151757 1.42883e+06 
320 -0.03805 8.83429e-05 985.003 273.14 5.02489 5.02433 0.0932762 0.21032 1.42874e+06 
342 -0.03585 8.83442e-05 984.996 273.153 5.0252 5.02482 -0.186624 -0.33951 1.42934e+06 
329 -0.03715 8.83435e-05 984.998 273.15 5.02511 5.02474 -0.0650282 -0.136804 1.42915e+06 
330 -0.03705 8.83428e-05 985.002 273.14 5.02489 5.0243 0.105548 0.146101 1.42872e+06 
331 -0.03695 8.8343e-05 985.003 273.142 5.02493 5.02442 0.0641132 0.0696925 1.42881e+06 
332 -0.03685 8.83427e-05 985.003 273.142 5.02492 5.02431 0.123411 0.20727 1.42871e+06 
333 -0.03675 8.83435e-05 985.001 273.144 5.025 5.02455 0.0403244 0.064939 1.42896e+06 
334 -0.03665 8.83437e-05 984.998 273.145 5.02504 5.02455 0.00750003 0.023869 1.429e+06 