ITEM: TIMESTEP
30000
ITEM: NUMBER OF CELLS
1000
ITEM: BOX BOUNDS os pp pp
-0.07 0.03
-0.001 0.001
-0.001 0.001
ITEM: CELLS id f_1[1] f_1[2] f_1[3] f_1[4] f_1[5] f_1[6] f_1[7] f_1[8] f_1[9] 
1 -0.06995 8.83422e-05 985.012 273.158 5.02518 5.02487 -0.671112 -1.18654 1.42836e+06 
2 -0.06985 8.83418e-05 985.016 273.16 5.0252 5.02489 -0.709553 -1.25357 1.42845e+06 
3 -0.06975 8.83419e-05 985.016 273.157 5.02515 5.02476 -0.678588 -1.1722 1.42832e+06 
4 -0.06965 8.83411e-05 985.02 273.151 5.02498 5.02431 -0.521355 -0.899774 1.42796e+06 
5 -0.06955 8.83415e-05 985.02 273.153 5.02506 5.02457 -0.574369 -1.00986 1.42811e+06 
6 -0.06945 8.83418e-05 985.018 273.152 5.02505 5.02461 -0.587257 -1.09514 1.42819e+06 
7 -0.06935 8.83412e-05 985.018 273.153 5.02504 5.02466 -0.596019 -1.15629 1.42828e+06 
8 -0.06925 8.83412e-05 985.021 273.146 5.02491 5.02433 -0.490684 -0.93316 1.42798e+06 
9 -0.06915 8.83417e-05 985.023 273.148 5.02497 5.02424 -0.501841 -0.906317 1.42798e+06 
10 -0.06905 8.8341e-05 985.02 273.15 5.02497 5.02434 -0.547389 -1.00712 1.42814e+06 
11 -0.06895 8.83411e-05 985.02 273.153 5.02504 5.02444 -0.606076 -1.10102 1.42824e+06 
12 -0.06885 8.83417e-05 985.018 273.155 5.02511 5.02457 -0.685557 -1.25261 1.42843e+06 
13 -0.06875 8.83417e-05 985.02 273.151 5.02502 5.02439 -0.56896 -1.08383 1.42826e+06 
14 -0.06865 8.83412e-05 985.023 273.147 5.02493 5.02408 -0.504867 -0.89668 1.42805e+06 
15 -0.06855 8.83418e-05 985.02 273.153 5.02507 5.02434 -0.604998 -1.10389 1.42835e+06 
16 -0.06845 8.83419e-05 985.022 273.153 5.02507 5.02442 -0.583182 -1.10134 1.42842e+06 
17 -0.06835 8.83421e-05 985.015 273.156 5.02514 5.02465 -0.682437 -1.24638 1.42867e+06 
18 -0.06825 8.83423e-05 985.019 273.156 5.02515 5.02448 -0.64017 -1.08684 1.42852e+06 
19 -0.06815 8.83422e-05 985.016 273.153 5.02509 5.02445 -0.655959 -1.11367 1.4285e+06 
20 -0.06805 8.83415e-05 985.022 273.153 5.02505 5.02429 -0.603818 -0.973476 1.42841e+06 
21 -0.06795 8.83419e-05 985.02 273.151 5.02505 5.02435 -0.578476 -0.949424 1.42843e+06 
22 -0.06785 8.83419e-05 985.019 273.148 5.02499 5.02421 -0.464292 -0.781018 1.42822e+06 
23 -0.06775 8.83422e-05 985.022 273.148 5.025 5.02428 -0.493473 -0.851473 1.42824e+06 
24 -0.06765 8.83415e-05 985.021 273.148 5.02496 5.02408 -0.423927 -0.686714 1.42807e+06 
25 -0.06755 8.83421e-05 985.021 273.147 5.02497 5.02414 -0.456348 -0.730244 1.4282e+06 
26 -0.06745 8.83414e-05 985.02 273.147 5.02493 5.02411 -0.426941 -0.639391 1.42815e+06 
27 -0.06735 8.83415e-05 985.02 273.15 5.025 5.02434 -0.500661 -0.784957 1.42837e+06 
28 -0.06725 8.83414e-05 985.024 273.143 5.02486 5.02389 -0.331386 -0.403182 1.42794e+06 
29 -0.06715 8.83413e-05 985.015 273.153 5.02504 5.02456 -0.582648 -0.907031 1.42867e+06 
30 -0.06705 8.83421e-05 985.015 273.154 5.0251 5.02472 -0.630385 -0.967632 1.4288e+06 
31 -0.06695 8.83419e-05 985.014 273.154 5.02509 5.02493 -0.633518 -0.974941 1.42891e+06 
32 -0.06685 8.83412e-05 985.016 273.145 5.0249 5.02438 -0.441117 -0.675395 1.42843e+06 
33 -0.06675 8.83424e-05 985.016 273.148 5.02502 5.02464 -0.484121 -0.79389 1.42863e+06 
34 -0.06665 8.83417e-05 985.017 273.147 5.02494 5.02441 -0.432007 -0.660618 1.42844e+06 
35 -0.06655 8.83419e-05 985.018 273.147 5.02496 5.02446 -0.397947 -0.67681 1.42843e+06 
36 -0.06645 8.83416e-05 985.021 273.142 5.02485 5.02427 -0.393083 -0.562817 1.42838e+06 
37 -0.06635 8.83419e-05 985.018 273.144 5.0249 5.02442 -0.354837 -0.556255 1.42846e+06 
38 -0.06625 8.83416e-05 985.02 273.138 5.02479 5.0242 -0.295959 -0.435002 1.42824e+06 
39 -0.06615 8.83415e-05 985.022 273.137 5.02475 5.02417 -0.232997 -0.398812 1.42814e+06 
40 -0.06605 8.83416e-05 985.018 273.138 5.02479 5.0244 -0.268692 -0.501018 1.42824e+06 
41 -0.06595 8.83416e-05 985.018 273.138 5.02479 5.02437 -0.253855 -0.499826 1.42823e+06 
42 -0.06585 8.83416e-05 985.022 273.138 5.02477 5.02426 -0.199651 -0.358026 1.42816e+06 
43 -0.06575 8.83419e-05 985.022 273.136 5.02476 5.02422 -0.191114 -0.374747 1.42817e+06 
44 -0.06565 8.83416e-05 985.017 273.139 5.0248 5.02439 -0.261415 -0.514807 1.42836e+06 
45 -0.06555 8.83423e-05 985.016 273.139 5.02484 5.02449 -0.279021 -0.61011 1.42841e+06 
46 -0.06545 8.83416e-05 985.02 273.136 5.02475 5.02428 -0.22264 -0.465593 1.42826e+06 
47 -0.06535 8.83422e-05 985.019 273.136 5.02477 5.02433 -0.194998 -0.406123 1.42826e+06 
48 -0.06525 8.83415e-05 985.017 273.138 5.02479 5.02437 -0.239016 -0.473701 1.42836e+06 
49 -0.06515 8.83421e-05 985.017 273.136 5.02476 5.0244 -0.256101 -0.55483 1.42843e+06 
50 -0.06505 8.83418e-05 985.017 273.139 5.02482 5.02447 -0.238869 -0.553176 1.42849e+06 
51 -0.06495 8.83413e-05 985.019 273.134 5.02469 5.02424 -0.187002 -0.451751 1.42828e+06 
52 -0.06485 8.83415e-05 985.017 273.136 5.02474 5.02426 -0.180298 -0.400041 1.42831e+06 
53 -0.06475 8.83416e-05 985.019 273.139 5.02479 5.02444 -0.260965 -0.539278 1.4285e+06 
54 -0.06465 8.83415e-05 985.014 273.143 5.02486 5.02461 -0.34192 -0.690053 1.42866e+06 
55 -0.06455 8.83427e-05 985.01 273.147 5.02501 5.02497 -0.436652 -0.906958 1.429e+06 
56 -0.06445 8.83421e-05 985.012 273.144 5.02491 5.02484 -0.372153 -0.741279 1.4288e+06 
57 -0.06435 8.83418e-05 985.012 273.145 5.02491 5.02479 -0.369029 -0.723954 1.42881e+06 
58 -0.06425 8.83419e-05 985.016 273.141 5.02485 5.02448 -0.278802 -0.532243 1.42855e+06 
59 -0.06415 8.83418e-05 985.017 273.14 5.02483 5.02444 -0.281148 -0.569667 1.4286e+06 
60 -0.06405 8.83417e-05 985.019 273.138 5.02479 5.02422 -0.265295 -0.497022 1.42848e+06 
61 -0.06395 8.83417e-05 985.019 273.138 5.02479 5.02421 -0.248037 -0.498173 1.4285e+06 
62 -0.06385 8.83411e-05 985.022 273.134 5.02468 5.0239 -0.164496 -0.311812 1.42825e+06 
63 -0.06375 8.83408e-05 985.023 273.135 5.02468 5.02381 -0.159501 -0.272377 1.42822e+06 
69 -0.06315 8.83403e-05 985.022 273.138 5.02471 5.02389 -0.251166 -0.389404 1.42841e+06 
65 -0.06355 8.83412e-05 985.018 273.137 5.02473 5.02402 -0.229805 -0.456497 1.42836e+06 
66 -0.06345 8.83405e-05 985.021 273.139 5.02475 5.02407 -0.28316 -0.534389 1.42849e+06 
67 -0.06335 8.83413e-05 985.021 273.141 5.02483 5.02415 -0.325873 -0.548588 1.42858e+06 
68 -0.06325 8.83412e-05 985.02 273.14 5.02479 5.02401 -0.330497 -0.526946 1.42853e+06 
70 -0.06305 8.83414e-05 985.024 273.137 5.02475 5.02381 -0.199728 -0.271093 1.42833e+06 
71 -0.06295 8.8341e-05 985.02 273.138 5.02476 5.02398 -0.243405 -0.39122 1.42856e+06 
72 -0.06285 8.83411e-05 985.027 273.132 5.02465 5.02356 -0.142703 -0.1833 1.42824e+06 
73 -0.06275 8.83407e-05 985.027 273.13 5.02458 5.02338 -0.11019 -0.109055 1.42814e+06 
74 -0.06265 8.83404e-05 985.025 273.135 5.02465 5.02357 -0.222063 -0.317882 1.42832e+06 
75 -0.06255 8.83412e-05 985.027 273.134 5.02469 5.02366 -0.214436 -0.320136 1.42834e+06 
76 -0.06245 8.834e-05 985.026 273.136 5.02465 5.02356 -0.228981 -0.360829 1.4283e+06 
77 -0.06235 8.83414e-05 985.024 273.136 5.02474 5.02383 -0.225409 -0.425363 1.42843e+06 
78 -0.06225 8.83401e-05 985.027 273.132 5.02459 5.02355 -0.158879 -0.278048 1.42814e+06 
64 -0.06365 8.83409e-05 985.019 273.14 5.02479 5.0242 -0.303698 -0.566648 1.42861e+06 
79 -0.06215 8.83408e-05 985.028 273.129 5.02457 5.02337 -0.0746281 -0.0566041 1.42798e+06 
80 -0.06205 8.83405e-05 985.029 273.13 5.02457 5.02341 -0.109103 -0.143215 1.42801e+06 
81 -0.06195 8.83408e-05 985.026 273.132 5.02463 5.02368 -0.171659 -0.31129 1.42823e+06 
82 -0.06185 8.83408e-05 985.021 273.139 5.02476 5.02402 -0.274948 -0.519551 1.42854e+06 
83 -0.06175 8.83408e-05 985.024 273.133 5.02465 5.02382 -0.16449 -0.34361 1.42825e+06 
84 -0.06165 8.83412e-05 985.024 273.137 5.02474 5.02414 -0.236074 -0.518352 1.42853e+06 
85 -0.06155 8.83417e-05 985.023 273.132 5.02468 5.02387 -0.155757 -0.308245 1.42836e+06 
86 -0.06145 8.8341e-05 985.022 273.134 5.02468 5.02387 -0.195611 -0.346428 1.4284e+06 
87 -0.06135 8.83415e-05 985.021 273.136 5.02473 5.02405 -0.238098 -0.46723 1.4285e+06 
88 -0.06125 8.8342e-05 985.021 273.14 5.02484 5.02424 -0.276698 -0.506242 1.42871e+06 
89 -0.06115 8.83413e-05 985.028 273.133 5.02468 5.02371 -0.147451 -0.200856 1.42828e+06 
90 -0.06105 8.83407e-05 985.02 273.14 5.02476 5.02404 -0.291209 -0.449373 1.42869e+06 
91 -0.06095 8.83422e-05 985.022 273.137 5.0248 5.02423 -0.320258 -0.582041 1.42875e+06 
92 -0.06085 8.83412e-05 985.026 273.136 5.02472 5.02394 -0.190077 -0.35179 1.42848e+06 
93 -0.06075 8.83411e-05 985.025 273.131 5.02462 5.0238 -0.131293 -0.246591 1.42829e+06 
94 -0.06065 8.83412e-05 985.026 273.133 5.02466 5.02381 -0.170338 -0.327236 1.42836e+06 
95 -0.06055 8.83407e-05 985.025 273.131 5.0246 5.02368 -0.13579 -0.215504 1.42825e+06 
96 -0.06045 8.83414e-05 985.029 273.131 5.02463 5.02366 -0.0985994 -0.158681 1.42819e+06 
97 -0.06035 8.83412e-05 985.027 273.13 5.02461 5.02371 -0.124979 -0.263518 1.42827e+06 
98 -0.06025 8.83407e-05 985.025 273.13 5.02459 5.02371 -0.124954 -0.29352 1.42827e+06 
99 -0.06015 8.83413e-05 985.026 273.137 5.02475 5.02399 -0.257135 -0.469611 1.42856e+06 
100 -0.06005 8.83411e-05 985.026 273.13 5.02461 5.02362 -0.158495 -0.235112 1.42821e+06 
101 -0.05995 8.83407e-05 985.027 273.135 5.02466 5.02372 -0.209875 -0.323494 1.42837e+06 
102 -0.05985 8.83411e-05 985.025 273.129 5.02459 5.02356 -0.160973 -0.227076 1.42821e+06 
103 -0.05975 8.8342e-05 985.027 273.131 5.02468 5.02373 -0.182128 -0.297931 1.42834e+06 
104 -0.05965 8.83415e-05 985.025 273.131 5.02466 5.02364 -0.193784 -0.275936 1.42836e+06 
105 -0.05955 8.83404e-05 985.028 273.13 5.02457 5.02359 -0.16939 -0.212529 1.42829e+06 
106 -0.05945 8.83408e-05 985.03 273.126 5.02452 5.0234 -0.0561544 0.0134623 1.42808e+06 
107 -0.05935 8.83413e-05 985.025 273.13 5.02462 5.0238 -0.160935 -0.194079 1.42838e+06 
108 -0.05925 8.83405e-05 985.026 273.127 5.02453 5.02366 -0.0942399 -0.094819 1.42824e+06 
109 -0.05915 8.8341e-05 985.025 273.131 5.02461 5.02383 -0.155019 -0.205747 1.42836e+06 
110 -0.05905 8.83408e-05 985.024 273.13 5.02458 5.0238 -0.137775 -0.158754 1.42833e+06 
111 -0.05895 8.83407e-05 985.025 273.128 5.02454 5.02371 -0.182005 -0.17856 1.42834e+06 
112 -0.05885 8.83411e-05 985.024 273.131 5.02462 5.0238 -0.179114 -0.167506 1.42846e+06 
113 -0.05875 8.83412e-05 985.023 273.131 5.02464 5.02391 -0.232529 -0.20282 1.42857e+06 
114 -0.05865 8.83412e-05 985.019 273.134 5.02468 5.02412 -0.250931 -0.268639 1.42869e+06 
115 -0.05855 8.8341e-05 985.017 273.139 5.02476 5.02437 -0.324961 -0.420311 1.42888e+06 
116 -0.05845 8.83413e-05 985.023 273.13 5.02462 5.02396 -0.193905 -0.126724 1.4285e+06 
117 -0.05835 8.83407e-05 985.023 273.13 5.02458 5.02385 -0.155042 -0.0265814 1.42838e+06 
118 -0.05825 8.83413e-05 985.026 273.13 5.02462 5.02394 -0.168911 -0.0468468 1.42851e+06 
119 -0.05815 8.83408e-05 985.019 273.132 5.02463 5.02414 -0.26146 -0.238925 1.4287e+06 
120 -0.05805 8.83419e-05 985.02 273.135 5.02474 5.02421 -0.259189 -0.257344 1.42873e+06 
121 -0.05795 8.83408e-05 985.022 273.127 5.02454 5.02382 -0.165143 -0.0737958 1.42844e+06 
122 -0.05785 8.83411e-05 985.027 273.128 5.02457 5.0237 -0.0977875 0.0636296 1.42831e+06 
123 -0.05775 8.83404e-05 985.028 273.124 5.02446 5.02353 -0.0469795 0.137643 1.42815e+06 
124 -0.05765 8.83408e-05 985.022 273.13 5.02458 5.02369 -0.151185 -0.0610212 1.42842e+06 
125 -0.05755 8.83412e-05 985.026 273.127 5.02456 5.0236 -0.120953 0.0342229 1.42835e+06 
137 -0.05635 8.83415e-05 985.022 273.124 5.02451 5.02393 -0.0575144 -0.118758 1.42844e+06 
129 -0.05715 8.83414e-05 985.028 273.126 5.02455 5.02351 -0.0531299 0.0961274 1.42833e+06 
130 -0.05705 8.83417e-05 985.024 273.127 5.02458 5.02378 -0.0938175 -0.0124711 1.4285e+06 
131 -0.05695 8.83411e-05 985.026 273.123 5.02447 5.02357 -0.0482086 0.0450719 1.42832e+06 
132 -0.05685 8.83413e-05 985.024 273.123 5.02449 5.02371 -0.0316905 0.0445652 1.42836e+06 
133 -0.05675 8.83416e-05 985.026 273.124 5.02452 5.02371 0.0132897 0.0755661 1.4283e+06 
134 -0.05665 8.83416e-05 985.021 273.125 5.02455 5.02392 -0.0967364 -0.101564 1.42852e+06 
135 -0.05655 8.83418e-05 985.019 273.128 5.02461 5.02419 -0.18577 -0.336827 1.42872e+06 
136 -0.05645 8.83415e-05 985.022 273.125 5.02453 5.02385 -0.0282463 -0.0643838 1.4284e+06 
138 -0.05625 8.83417e-05 985.02 273.125 5.02455 5.02397 -0.0803411 -0.14696 1.42848e+06 
139 -0.05615 8.83421e-05 985.02 273.128 5.02463 5.02403 -0.0797121 -0.105866 1.42853e+06 
140 -0.05605 8.83417e-05 985.025 273.123 5.02452 5.02373 -0.0814546 -0.0168116 1.42843e+06 
141 -0.05595 8.83413e-05 985.025 273.126 5.02453 5.02364 -0.0742412 0.0226384 1.42838e+06 
126 -0.05745 8.8341e-05 985.026 273.128 5.02456 5.02359 -0.0993349 0.0504202 1.42834e+06 
127 -0.05735 8.83414e-05 985.024 273.128 5.02459 5.0237 -0.145624 -0.0434499 1.4285e+06 
128 -0.05725 8.83416e-05 985.023 273.13 5.02463 5.02379 -0.162944 -0.0432161 1.42856e+06 
142 -0.05585 8.83407e-05 985.027 273.122 5.02443 5.02349 0.0152952 0.206779 1.42815e+06 
143 -0.05575 8.83416e-05 985.027 273.124 5.02452 5.02374 -0.0308178 0.10093 1.42834e+06 
144 -0.05565 8.83411e-05 985.021 273.128 5.02456 5.02383 -0.120774 -0.126228 1.42854e+06 
145 -0.05555 8.8342e-05 985.019 273.13 5.02466 5.0241 -0.215355 -0.312511 1.42877e+06 
146 -0.05545 8.83408e-05 985.024 273.127 5.02454 5.02385 -0.130918 -0.0983621 1.42856e+06 
147 -0.05535 8.83415e-05 985.022 273.128 5.0246 5.02397 -0.119288 -0.119548 1.42861e+06 
148 -0.05525 8.83412e-05 985.02 273.128 5.02458 5.02393 -0.104409 -0.152588 1.42851e+06 
149 -0.05515 8.83419e-05 985.022 273.123 5.02453 5.02384 -0.0474552 -0.0972752 1.42843e+06 
150 -0.05505 8.83406e-05 985.02 273.127 5.02452 5.02401 -0.0600593 -0.148362 1.42855e+06 
151 -0.05495 8.83416e-05 985.019 273.126 5.02455 5.02401 -0.0953454 -0.113007 1.42854e+06 
152 -0.05485 8.8341e-05 985.022 273.128 5.02457 5.02399 -0.13429 -0.114624 1.42859e+06 
153 -0.05475 8.83413e-05 985.02 273.126 5.02455 5.024 -0.116586 -0.113993 1.42856e+06 
154 -0.05465 8.83409e-05 985.02 273.128 5.02456 5.024 -0.134116 -0.0887584 1.42859e+06 
155 -0.05455 8.83418e-05 985.018 273.127 5.0246 5.02405 -0.121201 -0.124115 1.42861e+06 
156 -0.05445 8.83418e-05 985.021 273.128 5.02462 5.02412 -0.148938 -0.20823 1.42868e+06 
157 -0.05435 8.8341e-05 985.021 273.124 5.0245 5.02395 -0.0704605 -0.0354858 1.42851e+06 
158 -0.05425 8.8341e-05 985.023 273.124 5.02449 5.0238 -0.0488714 0.0550233 1.42854e+06 
159 -0.05415 8.83414e-05 985.022 273.123 5.02449 5.02385 -0.049374 0.032909 1.42854e+06 
160 -0.05405 8.83415e-05 985.021 273.127 5.02457 5.02399 -0.101855 -0.0465892 1.4287e+06 
161 -0.05395 8.83413e-05 985.021 273.125 5.02452 5.02395 -0.0985781 -0.00669874 1.42868e+06 
162 -0.05385 8.83411e-05 985.022 273.126 5.02453 5.02389 -0.09542 -0.00555638 1.42864e+06 
163 -0.05375 8.83412e-05 985.024 273.124 5.0245 5.0238 -0.0631258 0.0774953 1.42857e+06 
164 -0.05365 8.83408e-05 985.02 273.126 5.02452 5.02389 -0.096871 -0.00366416 1.42864e+06 
165 -0.05355 8.83413e-05 985.02 273.126 5.02455 5.024 -0.106916 -0.00419674 1.42871e+06 
166 -0.05345 8.83417e-05 985.018 273.126 5.02457 5.02405 -0.0645791 -0.00130833 1.42865e+06 
167 -0.05335 8.83409e-05 985.022 273.121 5.02443 5.02388 0.00325103 0.1462 1.42846e+06 
168 -0.05325 8.83419e-05 985.021 273.126 5.02457 5.02421 -0.0458651 0.00425203 1.42867e+06 
169 -0.05315 8.83417e-05 985.017 273.124 5.02453 5.02425 -0.0259581 0.0460475 1.4287e+06 
170 -0.05305 8.83421e-05 985.015 273.128 5.02463 5.02464 -0.0857466 -0.123151 1.42893e+06 
171 -0.05295 8.83419e-05 985.015 273.125 5.02455 5.02445 -0.00532696 0.0462895 1.42871e+06 
172 -0.05285 8.8342e-05 985.015 273.124 5.02455 5.0245 -0.00039573 0.0833159 1.42877e+06 
173 -0.05275 8.83421e-05 985.011 273.125 5.02456 5.02452 -0.0575764 0.00594861 1.4288e+06 
174 -0.05265 8.83425e-05 985.017 273.124 5.02457 5.02444 0.0200978 0.174988 1.42868e+06 
175 -0.05255 8.83415e-05 985.014 273.126 5.02455 5.02435 -0.0552748 0.0690548 1.42873e+06 
176 -0.05245 8.83416e-05 985.015 273.127 5.02457 5.02431 -0.0678195 0.0222232 1.42879e+06 
177 -0.05235 8.83418e-05 985.016 273.128 5.02462 5.02446 -0.127217 -0.0516815 1.42892e+06 
178 -0.05225 8.83411e-05 985.017 273.126 5.02454 5.02417 -0.042522 0.0879467 1.42869e+06 
179 -0.05215 8.83415e-05 985.015 273.125 5.02454 5.02423 -0.0758566 -0.000955065 1.42873e+06 
180 -0.05205 8.83419e-05 985.014 273.129 5.02463 5.02443 -0.0730134 -0.00689526 1.42883e+06 
181 -0.05195 8.83419e-05 985.015 273.128 5.02462 5.02445 -0.0996057 -0.0689285 1.42888e+06 
182 -0.05185 8.83416e-05 985.015 273.124 5.02453 5.02425 0.00988697 0.0974758 1.42866e+06 
183 -0.05175 8.83416e-05 985.014 273.127 5.02457 5.02452 -0.0773993 -0.0456395 1.42885e+06 
184 -0.05165 8.83414e-05 985.016 273.126 5.02454 5.02433 -0.0231516 0.0280183 1.42873e+06 
185 -0.05155 8.83417e-05 985.017 273.12 5.02446 5.02411 0.074028 0.218687 1.42849e+06 
186 -0.05145 8.83415e-05 985.02 273.118 5.02441 5.02403 0.145924 0.336308 1.42835e+06 
187 -0.05135 8.83415e-05 985.018 273.117 5.02439 5.02396 0.133576 0.320473 1.42834e+06 
188 -0.05125 8.83413e-05 985.021 273.12 5.02443 5.02402 0.132107 0.299921 1.4284e+06 
193 -0.05075 8.83422e-05 985.012 273.131 5.02469 5.02464 -0.161006 -0.228449 1.42893e+06 
194 -0.05065 8.8343e-05 985.01 273.131 5.02473 5.02462 -0.0917954 -0.147918 1.42882e+06 
195 -0.05055 8.83414e-05 985.015 273.128 5.02458 5.02433 -0.077372 -0.0852753 1.42866e+06 
196 -0.05045 8.83425e-05 985.016 273.128 5.02465 5.02453 -0.0669694 -0.0766038 1.42869e+06 
197 -0.05035 8.8342e-05 985.012 273.132 5.02468 5.02456 -0.15675 -0.193434 1.42889e+06 
198 -0.05025 8.83417e-05 985.014 273.132 5.02467 5.02446 -0.185636 -0.234088 1.42889e+06 
199 -0.05015 8.83424e-05 985.013 273.135 5.02476 5.02457 -0.222078 -0.301062 1.42898e+06 
200 -0.05005 8.83426e-05 985.013 273.131 5.02471 5.02446 -0.183338 -0.234094 1.42886e+06 
201 -0.04995 8.83413e-05 985.014 273.13 5.02462 5.02436 -0.168312 -0.226722 1.42884e+06 
202 -0.04985 8.83421e-05 985.015 273.13 5.02467 5.02447 -0.177777 -0.224019 1.42889e+06 
203 -0.04975 8.83415e-05 985.015 273.128 5.02459 5.02425 -0.13706 -0.120928 1.42872e+06 
189 -0.05115 8.83415e-05 985.017 273.124 5.02452 5.02423 0.0346312 0.124153 1.4286e+06 
190 -0.05105 8.83422e-05 985.009 273.131 5.02469 5.02482 -0.167168 -0.261678 1.42906e+06 
191 -0.05095 8.83427e-05 985.01 273.129 5.02468 5.02476 -0.13552 -0.236939 1.42902e+06 
192 -0.05085 8.83422e-05 985.013 273.129 5.02465 5.02459 -0.0588986 -0.0717784 1.4288e+06 
206 -0.04945 8.83412e-05 985.017 273.122 5.02446 5.02396 -0.023123 0.0665986 1.42848e+06 
204 -0.04965 8.83414e-05 985.017 273.123 5.0245 5.0241 -0.0715879 -0.0060023 1.4286e+06 
205 -0.04955 8.83411e-05 985.022 273.122 5.02447 5.02394 -0.00277216 0.0790698 1.4284e+06 
207 -0.04935 8.83411e-05 985.014 273.132 5.02464 5.02464 -0.206735 -0.359408 1.4291e+06 
208 -0.04925 8.83422e-05 985.014 273.131 5.02468 5.0246 -0.166897 -0.245762 1.42891e+06 
209 -0.04915 8.83418e-05 985.013 273.127 5.02459 5.02444 -0.110001 -0.105383 1.42876e+06 
210 -0.04905 8.83419e-05 985.011 273.132 5.02469 5.02453 -0.17096 -0.228849 1.42889e+06 
211 -0.04895 8.83419e-05 985.015 273.129 5.02464 5.02454 -0.147032 -0.174346 1.42886e+06 
212 -0.04885 8.83419e-05 985.01 273.131 5.02468 5.02467 -0.176722 -0.248224 1.42898e+06 
213 -0.04875 8.83418e-05 985.01 273.132 5.02469 5.02475 -0.154431 -0.260584 1.42894e+06 
214 -0.04865 8.83422e-05 985.008 273.133 5.02472 5.02485 -0.143509 -0.250313 1.42897e+06 
215 -0.04855 8.83422e-05 985.011 273.132 5.02469 5.0247 -0.12515 -0.192298 1.42889e+06 
216 -0.04845 8.83424e-05 985.008 273.133 5.02473 5.02485 -0.154012 -0.26466 1.42899e+06 
217 -0.04835 8.83429e-05 985.006 273.137 5.02483 5.02506 -0.226652 -0.396185 1.42921e+06 
218 -0.04825 8.83422e-05 985.006 273.135 5.02477 5.02495 -0.223912 -0.41846 1.42921e+06 
219 -0.04815 8.83427e-05 985.009 273.132 5.02474 5.02472 -0.121321 -0.177098 1.42892e+06 
220 -0.04805 8.8343e-05 985.006 273.135 5.02481 5.02497 -0.203701 -0.347658 1.42913e+06 
221 -0.04795 8.83423e-05 985.009 273.133 5.02473 5.02481 -0.1812 -0.255817 1.42907e+06 
222 -0.04785 8.83422e-05 985.011 273.131 5.02468 5.02461 -0.120849 -0.0603184 1.42883e+06 
223 -0.04775 8.83424e-05 985.009 273.134 5.02475 5.02478 -0.157925 -0.15177 1.42897e+06 
224 -0.04765 8.83423e-05 985.008 273.133 5.02473 5.02472 -0.215284 -0.249158 1.42904e+06 
225 -0.04755 8.83428e-05 985.008 273.136 5.02482 5.02484 -0.186999 -0.224567 1.42907e+06 
226 -0.04745 8.83419e-05 985.013 273.13 5.02465 5.0245 -0.090545 -0.0615223 1.42881e+06 
227 -0.04735 8.83426e-05 985.014 273.129 5.02468 5.02456 -0.0955522 -0.136859 1.42886e+06 
228 -0.04725 8.83419e-05 985.013 273.127 5.0246 5.0244 -0.0220819 -0.0242193 1.4287e+06 
229 -0.04715 8.83425e-05 985.017 273.123 5.02455 5.02413 0.0681178 0.126543 1.42841e+06 
230 -0.04705 8.83417e-05 985.018 273.129 5.02461 5.02426 -0.0194423 -0.0278174 1.42862e+06 
231 -0.04695 8.83418e-05 985.016 273.124 5.02453 5.02415 0.0118763 0.0551749 1.42854e+06 
232 -0.04685 8.83421e-05 985.017 273.128 5.02463 5.02421 -0.0482004 -0.0326077 1.42867e+06 
233 -0.04675 8.83426e-05 985.013 273.131 5.0247 5.02444 -0.132456 -0.186206 1.42887e+06 
234 -0.04665 8.83421e-05 985.009 273.133 5.02472 5.02462 -0.226705 -0.409448 1.42913e+06 
235 -0.04655 8.83427e-05 985.012 273.133 5.02476 5.02458 -0.192757 -0.250312 1.42903e+06 
236 -0.04645 8.83421e-05 985.012 273.135 5.02475 5.02464 -0.21997 -0.304345 1.42912e+06 
237 -0.04635 8.83422e-05 985.013 273.131 5.02469 5.02444 -0.162051 -0.190473 1.42893e+06 
238 -0.04625 8.83417e-05 985.015 273.13 5.02464 5.02428 -0.107126 -0.105719 1.42876e+06 
239 -0.04615 8.83429e-05 985.014 273.129 5.0247 5.02451 -0.124654 -0.185674 1.42891e+06 
240 -0.04605 8.83428e-05 985.014 273.129 5.02467 5.02442 -0.0964496 -0.143737 1.42889e+06 
241 -0.04595 8.83422e-05 985.016 273.128 5.02463 5.02426 -0.0856838 -0.0636164 1.42874e+06 
242 -0.04585 8.8342e-05 985.017 273.128 5.02463 5.02431 -0.0792507 -0.0709523 1.42881e+06 
243 -0.04575 8.8343e-05 985.013 273.131 5.02472 5.02438 -0.127827 -0.156009 1.4289e+06 
244 -0.04565 8.83415e-05 985.022 273.126 5.02455 5.02406 0.00553149 0.127078 1.42861e+06 
245 -0.04555 8.83411e-05 985.017 273.125 5.02452 5.02422 -0.0405464 0.00107305 1.42871e+06 
246 -0.04545 8.83417e-05 985.02 273.121 5.02448 5.02401 0.0303329 0.147695 1.4285e+06 
247 -0.04535 8.83415e-05 985.019 273.127 5.02458 5.02419 -0.00960648 0.0533394 1.42869e+06 
248 -0.04525 8.83413e-05 985.022 273.118 5.0244 5.02383 0.0970712 0.270961 1.42838e+06 
249 -0.04515 8.83408e-05 985.022 273.121 5.02443 5.02389 0.0858568 0.271621 1.42846e+06 
250 -0.04505 8.83412e-05 985.024 273.12 5.02443 5.02389 0.113031 0.309916 1.42846e+06 
257 -0.04435 8.83416e-05 985.022 273.122 5.02449 5.02417 0.0406557 0.0591732 1.42866e+06 
258 -0.04425 8.83416e-05 985.023 273.124 5.02452 5.02405 0.0536062 0.159636 1.42856e+06 
259 -0.04415 8.83403e-05 985.024 273.121 5.0244 5.02388 0.053045 0.176623 1.42855e+06 
260 -0.04405 8.83412e-05 985.022 273.126 5.02453 5.02411 0.00120266 0.0486641 1.42873e+06 
261 -0.04395 8.83413e-05 985.024 273.123 5.02449 5.02397 0.046126 0.162256 1.42862e+06 
262 -0.04385 8.83409e-05 985.025 273.122 5.02444 5.02383 0.0561631 0.241935 1.42847e+06 
263 -0.04375 8.83407e-05 985.025 273.122 5.02444 5.02382 0.0407317 0.221825 1.42857e+06 
264 -0.04365 8.83407e-05 985.026 273.124 5.02448 5.02394 0.00998057 0.229263 1.42866e+06 
265 -0.04355 8.83415e-05 985.024 273.126 5.02456 5.0241 -0.0123238 0.180078 1.4287e+06 
266 -0.04345 8.83409e-05 985.025 273.124 5.02448 5.02396 -0.00742352 0.19961 1.42866e+06 
251 -0.04495 8.83411e-05 985.019 273.124 5.02449 5.024 0.0231871 0.155153 1.42859e+06 
252 -0.04485 8.83419e-05 985.022 273.125 5.02456 5.02404 0.0305025 0.185132 1.42864e+06 
253 -0.04475 8.83409e-05 985.024 273.116 5.02433 5.02381 0.162557 0.368288 1.4283e+06 
254 -0.04465 8.83407e-05 985.023 273.12 5.02441 5.024 0.130572 0.26656 1.42845e+06 
255 -0.04455 8.83413e-05 985.023 273.121 5.02446 5.02415 0.0736769 0.130815 1.4286e+06 
256 -0.04445 8.83405e-05 985.026 273.117 5.02433 5.02382 0.197874 0.393231 1.42824e+06 
274 -0.04265 8.83408e-05 985.022 273.123 5.02447 5.02403 0.0263591 0.204779 1.4286e+06 
267 -0.04335 8.8341e-05 985.025 273.124 5.02448 5.0239 0.00739884 0.205176 1.42863e+06 
268 -0.04325 8.83412e-05 985.024 273.125 5.02452 5.02407 -0.0267411 0.130324 1.42877e+06 
269 -0.04315 8.83408e-05 985.026 273.12 5.02441 5.02387 0.0368407 0.223569 1.42857e+06 
270 -0.04305 8.83411e-05 985.023 273.123 5.02448 5.024 0.00502263 0.172481 1.42866e+06 
271 -0.04295 8.83409e-05 985.025 273.124 5.02448 5.02401 0.0284673 0.190735 1.42861e+06 
272 -0.04285 8.83411e-05 985.023 273.129 5.02459 5.02419 -0.109983 0.0104463 1.42889e+06 
273 -0.04275 8.83411e-05 985.022 273.129 5.02459 5.02433 -0.110335 -0.0158819 1.42894e+06 
275 -0.04255 8.83407e-05 985.026 273.125 5.0245 5.02405 -0.00222864 0.0822658 1.42865e+06 
276 -0.04245 8.83418e-05 985.022 273.122 5.02451 5.02401 -0.0277228 0.0500381 1.42866e+06 
277 -0.04235 8.83402e-05 985.025 273.127 5.02451 5.02401 -0.00271551 0.0928721 1.4287e+06 
278 -0.04225 8.83406e-05 985.024 273.124 5.02447 5.02395 0.0297274 0.141518 1.42861e+06 
279 -0.04215 8.83409e-05 985.022 273.125 5.0245 5.02403 0.0770668 0.175573 1.42858e+06 
280 -0.04205 8.83418e-05 985.023 273.124 5.02453 5.0242 0.0308031 0.0893905 1.4287e+06 
281 -0.04195 8.83414e-05 985.021 273.125 5.02452 5.02426 0.0578993 0.110391 1.42872e+06 
282 -0.04185 8.83413e-05 985.02 273.123 5.02449 5.02418 0.0687587 0.16499 1.42868e+06 
283 -0.04175 8.83413e-05 985.025 273.121 5.02446 5.024 0.137932 0.25769 1.42852e+06 
284 -0.04165 8.83413e-05 985.021 273.123 5.02449 5.02407 0.0881269 0.172654 1.42868e+06 
285 -0.04155 8.83411e-05 985.024 273.12 5.02442 5.02403 0.10044 0.12478 1.42862e+06 
286 -0.04145 8.83414e-05 985.02 273.124 5.02451 5.02423 0.034158 -0.07621 1.42885e+06 
287 -0.04135 8.83416e-05 985.022 273.121 5.02447 5.02416 0.115507 0.0904694 1.42867e+06 
288 -0.04125 8.83408e-05 985.02 273.121 5.02443 5.02418 0.072549 -0.0101063 1.42875e+06 
289 -0.04115 8.83419e-05 985.019 273.121 5.02449 5.02422 0.0830769 -0.00360837 1.42874e+06 
290 -0.04105 8.83413e-05 985.02 273.122 5.02447 5.02416 0.0727507 -0.0548881 1.4287e+06 
291 -0.04095 8.83412e-05 985.022 273.121 5.02444 5.02416 0.103301 0.00542262 1.42871e+06 
292 -0.04085 8.8341e-05 985.026 273.115 5.02432 5.02381 0.211749 0.23881 1.42837e+06 
293 -0.04075 8.8341e-05 985.023 273.118 5.02438 5.024 0.157602 0.100137 1.42861e+06 
294 -0.04065 8.83416e-05 985.018 273.122 5.02448 5.02433 0.0947466 -0.0754071 1.42887e+06 
295 -0.04055 8.83409e-05 985.021 273.118 5.02437 5.02403 0.104555 0.0098143 1.42867e+06 
296 -0.04045 8.83417e-05 985.023 273.117 5.0244 5.02411 0.157146 0.0901965 1.42864e+06 
297 -0.04035 8.8341e-05 985.021 273.118 5.02438 5.02421 0.139069 0.0482599 1.4287e+06 
298 -0.04025 8.83415e-05 985.022 273.116 5.02436 5.02413 0.138224 0.100201 1.42864e+06 
299 -0.04015 8.83403e-05 985.022 273.115 5.02429 5.02392 0.20797 0.263029 1.42846e+06 
300 -0.04005 8.83417e-05 985.022 273.119 5.02445 5.02422 0.10816 0.0819531 1.42872e+06 
301 -0.03995 8.83411e-05 985.021 273.117 5.02437 5.02417 0.169417 0.148081 1.42861e+06 
302 -0.03985 8.83407e-05 985.023 273.116 5.02433 5.02405 0.182461 0.209124 1.42854e+06 
303 -0.03975 8.83418e-05 985.024 273.121 5.02447 5.02424 0.0788312 0.0234538 1.42872e+06 
304 -0.03965 8.83406e-05 985.02 273.123 5.02446 5.02434 0.0232173 -0.115218 1.4289e+06 
305 -0.03955 8.83411e-05 985.023 273.117 5.02437 5.024 0.1225 0.128083 1.42857e+06 
306 -0.03945 8.83411e-05 985.023 273.12 5.02442 5.02402 0.142108 0.153026 1.42859e+06 
307 -0.03935 8.83409e-05 985.022 273.125 5.0245 5.02424 0.019497 -0.0374422 1.4288e+06 
308 -0.03925 8.83415e-05 985.017 273.127 5.02457 5.02447 -0.0535539 -0.139854 1.42906e+06 
309 -0.03915 8.83415e-05 985.02 273.124 5.02452 5.02422 0.0125913 -0.0378977 1.42885e+06 
310 -0.03905 8.83407e-05 985.02 273.122 5.02443 5.02425 0.0866219 0.0674809 1.42874e+06 
311 -0.03895 8.83412e-05 985.023 273.124 5.0245 5.02427 0.0538497 0.0428586 1.42873e+06 
312 -0.03885 8.83413e-05 985.017 273.126 5.02454 5.02441 0.0176079 -0.055975 1.42884e+06 
313 -0.03875 8.83412e-05 985.019 273.129 5.02459 5.02455 -0.020231 -0.154452 1.42897e+06 
321 -0.03795 8.83423e-05 985.02 273.123 5.02454 5.0245 0.143994 0.172428 1.42868e+06 
322 -0.03785 8.83416e-05 985.019 273.121 5.02448 5.02426 0.150325 0.252555 1.42852e+06 
323 -0.03775 8.83419e-05 985.021 273.126 5.02458 5.02447 0.0834859 0.112353 1.42875e+06 
324 -0.03765 8.83415e-05 985.017 273.127 5.02457 5.02451 0.0142628 -0.0134403 1.42885e+06 
325 -0.03755 8.83423e-05 985.02 273.125 5.02459 5.02442 0.0494513 0.0600663 1.42875e+06 
326 -0.03745 8.83414e-05 985.02 273.122 5.02447 5.02421 0.137839 0.207979 1.42854e+06 
327 -0.03735 8.83414e-05 985.023 273.122 5.02448 5.02425 0.131001 0.156429 1.42858e+06 
328 -0.03725 8.83418e-05 985.023 273.123 5.02451 5.02427 0.10329 0.13578 1.42859e+06 
314 -0.03865 8.83414e-05 985.021 273.126 5.02455 5.02438 0.0609706 0.0214667 1.42876e+06 
315 -0.03855 8.83399e-05 985.023 273.118 5.02433 5.02401 0.213923 0.33392 1.42837e+06 
316 -0.03845 8.83415e-05 985.022 273.12 5.02444 5.02421 0.161829 0.232203 1.42854e+06 
317 -0.03835 8.83412e-05 985.022 273.122 5.02447 5.02413 0.172733 0.294592 1.42847e+06 
318 -0.03825 8.83414e-05 985.019 273.127 5.02457 5.02454 0.0452525 0.0305462 1.42886e+06 
319 -0.03815 8.83416e-05 985.021 273.124 5.02452 5.02436 0.0855056 0.177661 1.42869e+06 
320 -0.03805 8.83409e-05 985.017 273.124 5.02448 5.02434 0.0914979 0.140468 1.4287e+06 
342 -0.03585 8.83406e-05 985.027 273.113 5.02427 5.02373 0.238443 0.437986 1.42823e+06 
329 -0.03715 8.83418e-05 985.021 273.122 5.0245 5.02431 0.122548 0.172245 1.42861e+06 
330 -0.03705 8.83413e-05 985.02 273.125 5.02452 5.02435 0.0856534 0.108733 1.4287e+06 
331 -0.03695 8.83416e-05 985.016 273.128 5.0246 5.02464 0.0257244 -0.0450104 1.4289e+06 
332 -0.03685 8.83421e-05 985.013 273.129 5.02465 5.02479 -0.0534394 -0.197122 1.42907e+06 
333 -0.03675 8.83421e-05 985.019 273.122 5.02452 5.02449 0.063366 0.0522351 1.42875e+06 
334 -0.03665 8.83416e-05 985.015 273.127 5.02458 5.02459 -0.00891037 -0.0474031 1.42887e+06 