TITLE = "DSMC"
VARIABLES = "ID" "X" "rho" "v1" "Ttrans" "p" "p1" "q1" "mv1v1v1" "mvvv1v1"
ZONE T="Ma=1.2_inv", I=1300, J=1, K=1, F=POINT
1300 -0.04995 0.000114593 -284.749 326.315 7.78689 7.7866 0.123568 0.458869 2645670.0
1299 -0.04985 0.000114611 -284.7 326.324 7.78836 7.78805 -0.142572 -0.169758 2645970.0
1298 -0.04975 0.000114599 -284.734 326.341 7.78794 7.78716 0.280679 0.299584 2645950.0
1297 -0.04965 0.000114608 -284.71 326.349 7.78875 7.78765 0.191349 -0.165765 2646070.0
1296 -0.04955 0.000114606 -284.716 326.332 7.7882 7.78758 0.107085 -0.0561074 2646000.0
1295 -0.04945 0.000114609 -284.709 326.335 7.78846 7.78788 0.0574811 -0.198416 2646110.0
1294 -0.04935 0.000114607 -284.713 326.334 7.7883 7.78766 0.0536193 -0.194835 2646020.0
1293 -0.04925 0.000114621 -284.678 326.314 7.78877 7.78916 -0.390142 -0.490784 2646320.0
1292 -0.04915 0.000114613 -284.696 326.315 7.78826 7.78825 -0.228507 -0.292283 2646110.0
1291 -0.04905 0.000114615 -284.692 326.307 7.78821 7.78838 -0.356356 -0.256668 2646090.0
1290 -0.04895 0.000114606 -284.713 326.29 7.78719 7.78767 -0.353888 0.0520826 2645900.0
1289 -0.04885 0.000114618 -284.683 326.3 7.78826 7.78881 -0.434597 -0.329735 2646110.0
1288 -0.04875 0.000114628 -284.659 326.305 7.78908 7.78953 -0.614606 -0.655298 2646220.0
1287 -0.04865 0.000114609 -284.705 326.28 7.78714 7.78789 -0.386811 -0.0128534 2645800.0
1286 -0.04855 0.000114595 -284.742 326.3 7.78668 7.78697 0.00312809 0.513864 2645750.0
1285 -0.04845 0.000114613 -284.694 326.323 7.78849 7.78842 -0.0687328 -0.159035 2646170.0
1284 -0.04835 0.000114621 -284.673 326.318 7.7889 7.78896 -0.326622 -0.444871 2646110.0
1283 -0.04825 0.000114623 -284.671 326.329 7.78924 7.789 -0.180991 -0.402153 2646350.0
1282 -0.04815 0.000114625 -284.666 326.325 7.78931 7.7894 -0.28184 -0.549797 2646470.0
1281 -0.04805 0.000114624 -284.667 326.327 7.78929 7.78918 -0.288788 -0.489346 2646320.0
1280 -0.04795 0.000114623 -284.674 326.313 7.7889 7.78908 -0.361302 -0.393427 2646210.0
1279 -0.04785 0.000114607 -284.713 326.304 7.78761 7.78775 -0.218143 0.0290977 2645810.0
1278 -0.04775 0.000114606 -284.716 326.279 7.78694 7.78778 -0.396872 0.0748193 2645660.0
1277 -0.04765 0.00011461 -284.704 326.307 7.7879 7.78786 -0.187684 -0.100395 2645780.0
1276 -0.04755 0.000114605 -284.719 326.347 7.78847 7.78756 0.247386 0.157559 2645990.0
1275 -0.04745 0.000114593 -284.745 326.338 7.78744 7.78669 0.394186 0.648601 2645800.0
1274 -0.04735 0.000114604 -284.72 326.337 7.78816 7.78764 0.23428 0.38965 2646060.0
1273 -0.04725 0.000114611 -284.701 326.353 7.78903 7.78823 0.218753 0.12992 2646260.0
1272 -0.04715 0.000114605 -284.712 326.368 7.78901 7.78785 0.419173 0.20933 2646190.0
1271 -0.04705 0.000114603 -284.718 326.348 7.78837 7.78769 0.360412 0.362126 2646070.0
1270 -0.04695 0.000114585 -284.764 326.321 7.78652 7.78605 0.408055 0.763871 2645620.0
1269 -0.04685 0.000114589 -284.751 326.329 7.78696 7.78645 0.422413 0.623732 2645730.0
1268 -0.04675 0.00011461 -284.699 326.327 7.78836 7.78803 -0.0404604 -0.0849566 2645950.0
1267 -0.04665 0.000114623 -284.669 326.318 7.78902 7.78904 -0.375967 -0.52362 2646120.0
1266 -0.04655 0.000114621 -284.673 326.305 7.78857 7.78893 -0.417649 -0.359162 2646050.0
1265 -0.04645 0.000114616 -284.684 326.303 7.7882 7.78856 -0.382872 -0.183001 2646050.0
1264 -0.04635 0.00011462 -284.673 326.304 7.78847 7.78877 -0.422941 -0.284595 2646130.0
1263 -0.04625 0.000114625 -284.66 326.339 7.78966 7.78941 -0.162706 -0.382925 2646430.0
1262 -0.04615 0.000114628 -284.653 326.307 7.78909 7.78964 -0.482972 -0.439386 2646390.0
1261 -0.04605 0.00011461 -284.699 326.302 7.78774 7.78798 -0.262139 0.0127968 2645920.0
1260 -0.04595 0.000114617 -284.68 326.31 7.78845 7.78864 -0.345246 -0.210083 2646060.0
1259 -0.04585 0.000114627 -284.658 326.315 7.78922 7.7893 -0.488767 -0.537918 2646190.0
1258 -0.04575 0.000114628 -284.657 326.295 7.78881 7.78936 -0.670306 -0.510882 2646050.0
1257 -0.04565 0.00011462 -284.676 326.304 7.78849 7.78887 -0.431844 -0.0782099 2646020.0
1256 -0.04555 0.000114601 -284.723 326.326 7.78772 7.78726 0.111641 0.472564 2645870.0
1255 -0.04545 0.000114609 -284.702 326.31 7.78789 7.78794 -0.216499 0.213657 2645970.0
1254 -0.04535 0.000114607 -284.708 326.326 7.78813 7.78788 -0.0186789 0.475925 2646110.0
1253 -0.04525 0.000114624 -284.663 326.337 7.78953 7.78923 -0.242511 -0.0686058 2646520.0
1252 -0.04515 0.000114634 -284.638 326.342 7.79032 7.79015 -0.336652 -0.210169 2646780.0
1251 -0.04505 0.000114622 -284.667 326.356 7.78988 7.78914 0.00189235 0.295849 2646560.0
1250 -0.04495 0.000114615 -284.689 326.352 7.78926 7.78837 0.0687635 0.488236 2646390.0
1249 -0.04485 0.000114619 -284.676 326.353 7.78958 7.78863 0.0590657 0.443464 2646430.0
1248 -0.04475 0.000114628 -284.655 326.369 7.79055 7.78957 -0.0238268 0.0673686 2646730.0
1247 -0.04465 0.000114627 -284.656 326.389 7.79097 7.78946 0.202157 0.102414 2646800.0
1246 -0.04455 0.000114631 -284.65 326.371 7.7908 7.78969 -0.065984 -0.0656738 2646730.0
1245 -0.04445 0.000114615 -284.69 326.364 7.78961 7.7883 0.22437 0.463851 2646360.0
1244 -0.04435 0.000114618 -284.681 326.386 7.79031 7.78865 0.356807 0.404269 2646560.0
1243 -0.04425 0.000114616 -284.688 326.41 7.79074 7.78834 0.63219 0.277729 2646630.0
1242 -0.04415 0.000114605 -284.717 326.387 7.78942 7.78758 0.636436 0.668235 2646380.0
1241 -0.04405 0.000114622 -284.673 326.371 7.79023 7.78882 0.0908417 3.85195e-05 2646480.0
1240 -0.04395 0.000114621 -284.675 326.39 7.79058 7.78864 0.316961 -0.0184994 2646460.0
1239 -0.04385 0.000114625 -284.666 326.403 7.79118 7.789 0.348125 -0.233166 2646620.0
1238 -0.04375 0.000114623 -284.669 326.367 7.79019 7.78894 -0.0236829 -0.289209 2646370.0
1237 -0.04365 0.000114627 -284.659 326.34 7.78983 7.78934 -0.349193 -0.362546 2646340.0
1236 -0.04355 0.000114613 -284.695 326.316 7.78826 7.78815 -0.296168 0.0336482 2645970.0
1235 -0.04345 0.000114601 -284.726 326.309 7.78728 7.78717 -0.14173 0.30875 2645680.0
1234 -0.04335 0.0001146 -284.73 326.304 7.7871 7.78712 -0.146039 0.287837 2645660.0
1233 -0.04325 0.000114587 -284.761 326.306 7.78627 7.78596 0.111599 0.582914 2645330.0
1232 -0.04315 0.000114602 -284.722 326.316 7.78758 7.78723 -0.119698 0.121334 2645700.0
1231 -0.04305 0.000114606 -284.714 326.336 7.78831 7.78754 0.0280565 0.0027503 2645870.0
1230 -0.04295 0.000114608 -284.709 326.34 7.78853 7.78769 0.050701 0.0385013 2645970.0
1229 -0.04285 0.000114604 -284.718 326.329 7.78797 7.78741 0.0412398 0.22433 2645880.0
1228 -0.04275 0.000114601 -284.724 326.317 7.78752 7.78735 -0.0858318 0.139547 2645890.0
1227 -0.04265 0.000114604 -284.714 326.329 7.78795 7.78754 -0.0159821 -0.00803434 2645990.0
1226 -0.04255 0.000114607 -284.707 326.33 7.78819 7.78773 -0.0776648 -0.0823213 2646060.0
1225 -0.04245 0.000114588 -284.75 326.3 7.78624 7.78614 0.00425069 0.547239 2645590.0
1224 -0.04235 0.000114579 -284.778 326.327 7.78625 7.78542 0.468574 0.963035 2645590.0
1223 -0.04225 0.000114599 -284.728 326.33 7.78765 7.78706 0.0839237 0.195092 2645850.0
1222 -0.04215 0.00011459 -284.748 326.358 7.78771 7.78639 0.532569 0.435283 2645960.0
1221 -0.04205 0.000114611 -284.696 326.351 7.789 7.788 0.0152861 -0.338368 2646260.0
1220 -0.04195 0.000114617 -284.685 326.371 7.78984 7.78863 0.152133 -0.470363 2646500.0
1219 -0.04185 0.000114607 -284.706 326.319 7.78797 7.78781 -0.173928 -0.16112 2646020.0
1218 -0.04175 0.000114613 -284.693 326.343 7.7889 7.78814 -0.00704398 -0.401138 2646170.0
1217 -0.04165 0.000114591 -284.747 326.329 7.78708 7.78664 0.237877 0.302099 2645830.0
1216 -0.04155 0.000114588 -284.753 326.333 7.787 7.78632 0.323121 0.392194 2645800.0
1215 -0.04145 0.000114577 -284.78 326.323 7.78602 7.78561 0.442323 0.764974 2645700.0
1214 -0.04135 0.000114579 -284.776 326.333 7.78637 7.78564 0.457943 0.586195 2645780.0
1213 -0.04125 0.000114581 -284.77 326.319 7.7862 7.78576 0.32508 0.540603 2645740.0
1212 -0.04115 0.000114589 -284.752 326.32 7.78678 7.78645 0.140235 0.368164 2645850.0
1211 -0.04105 0.000114598 -284.729 326.299 7.78685 7.78713 -0.23168 0.144567 2645880.0
1210 -0.04095 0.000114602 -284.715 326.295 7.78706 7.78757 -0.411225 -0.000329444 2645950.0
1209 -0.04085 0.000114603 -284.712 326.311 7.78749 7.78767 -0.197224 0.0688042 2646000.0
1208 -0.04075 0.000114595 -284.732 326.311 7.78693 7.78709 -0.0756952 0.334679 2645810.0
1207 -0.04065 0.000114594 -284.734 326.305 7.78675 7.78695 -0.104277 0.325071 2645700.0
1206 -0.04055 0.000114591 -284.744 326.313 7.78668 7.78678 0.0571112 0.40451 2645700.0
1205 -0.04045 0.000114594 -284.737 326.305 7.78676 7.78683 -0.0246668 0.21203 2645650.0
1204 -0.04035 0.000114582 -284.768 326.29 7.78552 7.78589 -0.00548576 0.702462 2645360.0
1203 -0.04025 0.00011459 -284.749 326.304 7.78642 7.78668 -0.0127853 0.498194 2645740.0
1202 -0.04015 0.000114599 -284.723 326.317 7.78734 7.7872 -0.0507331 0.111917 2645840.0
1201 -0.04005 0.00011459 -284.746 326.318 7.78678 7.78652 0.16674 0.48958 2645710.0
1200 -0.03995 0.000114579 -284.777 326.32 7.78605 7.78586 0.35794 0.868892 2645650.0
1199 -0.03985 0.000114587 -284.755 326.332 7.78689 7.78651 0.387294 0.793137 2645910.0
1198 -0.03975 0.00011458 -284.773 326.314 7.78598 7.78592 0.237118 0.875619 2645650.0
1197 -0.03965 0.000114583 -284.762 326.324 7.78646 7.78628 0.301887 0.721584 2645750.0
1196 -0.03955 0.0001146 -284.719 326.347 7.78817 7.78759 0.186419 0.00431992 2646170.0
1195 -0.03945 0.000114585 -284.759 326.359 7.78738 7.78628 0.622058 0.579695 2646010.0
1194 -0.03935 0.000114589 -284.749 326.338 7.78717 7.78667 0.318705 0.379632 2645960.0
1193 -0.03925 0.00011459 -284.749 326.355 7.78763 7.78656 0.536121 0.265262 2646010.0
1192 -0.03915 0.000114583 -284.766 326.329 7.78658 7.78612 0.391785 0.532537 2645830.0
1191 -0.03905 0.000114583 -284.767 326.331 7.78661 7.78586 0.460408 0.559142 2645750.0
1190 -0.03895 0.000114589 -284.755 326.317 7.78668 7.78641 0.171836 0.395575 2645780.0
1189 -0.03885 0.000114583 -284.769 326.324 7.78643 7.7859 0.421791 0.571177 2645710.0
1188 -0.03875 0.000114579 -284.779 326.327 7.78625 7.78561 0.490421 0.690895 2645610.0
1187 -0.03865 0.000114571 -284.797 326.334 7.78586 7.78503 0.713143 0.937576 2645530.0
1186 -0.03855 0.000114601 -284.724 326.355 7.78843 7.78719 0.373693 -0.125608 2646020.0
1185 -0.03845 0.000114596 -284.733 326.339 7.78766 7.78699 0.253164 0.00989893 2645890.0
1184 -0.03835 0.000114578 -284.776 326.342 7.78656 7.78561 0.550866 0.593974 2645520.0
1183 -0.03825 0.000114576 -284.782 326.326 7.78601 7.78562 0.524585 0.878678 2645590.0
1182 -0.03815 0.000114602 -284.719 326.339 7.78809 7.78772 0.121781 0.0607282 2646050.0
1181 -0.03805 0.0001146 -284.721 326.342 7.78805 7.78769 0.124056 -0.0149024 2646050.0
1180 -0.03795 0.000114606 -284.708 326.36 7.78887 7.78806 0.215439 -0.26803 2646210.0
1179 -0.03785 0.000114598 -284.729 326.334 7.78769 7.78745 0.101491 -0.101231 2645920.0
1178 -0.03775 0.000114594 -284.735 326.316 7.78699 7.78713 0.0224724 -0.11631 2645770.0
1177 -0.03765 0.000114589 -284.75 326.326 7.78687 7.78651 0.205882 -0.0401492 2645670.0
1176 -0.03755 0.000114603 -284.711 326.33 7.78798 7.78785 -0.072814 -0.594705 2646040.0
1175 -0.03745 0.000114598 -284.727 326.299 7.78683 7.78741 -0.250234 -0.459783 2645760.0
1174 -0.03735 0.000114585 -284.754 326.298 7.78597 7.78642 -0.022757 -0.0297783 2645550.0
1173 -0.03725 0.000114597 -284.725 326.294 7.78666 7.78734 -0.309395 -0.511353 2645670.0
1172 -0.03715 0.000114587 -284.751 326.32 7.7866 7.78659 0.149647 -0.128586 2645650.0
1171 -0.03705 0.00011459 -284.744 326.333 7.78711 7.7868 0.20295 -0.192933 2645740.0
1170 -0.03695 0.000114593 -284.734 326.335 7.78737 7.78699 0.170393 -0.408339 2645820.0
1169 -0.03685 0.000114581 -284.767 326.341 7.78674 7.78625 0.482085 0.0866617 2645790.0
1168 -0.03675 0.000114572 -284.79 326.312 7.78539 7.78533 0.340503 0.287882 2645430.0
1167 -0.03665 0.000114578 -284.773 326.325 7.78611 7.78596 0.397111 0.235891 2645710.0
1166 -0.03655 0.000114583 -284.76 326.326 7.78652 7.78652 0.276334 0.0479919 2645820.0
1165 -0.03645 0.000114591 -284.737 326.374 7.78819 7.78707 0.579268 -0.1463 2646080.0
1164 -0.03635 0.000114585 -284.754 326.394 7.78822 7.78649 0.955747 0.119504 2646080.0
1163 -0.03625 0.000114576 -284.777 326.365 7.78693 7.78593 0.791503 0.279211 2645910.0
1162 -0.03615 0.000114579 -284.768 326.35 7.78676 7.78602 0.604439 0.145913 2645790.0
1161 -0.03605 0.000114586 -284.75 326.353 7.78735 7.78664 0.445492 -0.0519533 2645830.0
1160 -0.03595 0.000114595 -284.73 326.327 7.78731 7.7874 0.0369127 -0.306043 2645930.0
1159 -0.03585 0.000114596 -284.723 326.324 7.78731 7.78741 -0.00959927 -0.304624 2645930.0
1158 -0.03575 0.000114585 -284.752 326.34 7.78697 7.78663 0.438724 0.117852 2645850.0
1157 -0.03565 0.000114578 -284.771 326.33 7.78624 7.78604 0.434241 0.381944 2645750.0
1156 -0.03555 0.000114576 -284.773 326.325 7.786 7.78573 0.339042 0.279329 2645540.0
1155 -0.03545 0.000114579 -284.765 326.32 7.78605 7.7862 0.200072 0.130855 2645650.0
1154 -0.03535 0.000114588 -284.743 326.352 7.78742 7.78688 0.450033 -0.0906861 2645980.0
1153 -0.03525 0.00011458 -284.762 326.335 7.78649 7.78631 0.39742 0.186965 2645780.0
1152 -0.03515 0.000114582 -284.757 326.325 7.7864 7.78642 0.280737 0.186543 2645750.0
1151 -0.03505 0.000114579 -284.764 326.323 7.78613 7.78609 0.313226 0.386707 2645650.0
1150 -0.03495 0.000114584 -284.754 326.332 7.7867 7.78652 0.355919 0.334443 2645790.0
1149 -0.03485 0.000114583 -284.756 326.338 7.78677 7.78649 0.410105 0.314412 2645730.0
1148 -0.03475 0.000114576 -284.771 326.339 7.78634 7.7859 0.575633 0.546459 2645560.0
1147 -0.03465 0.000114582 -284.757 326.317 7.78617 7.78638 0.242307 0.252821 2645540.0
1146 -0.03455 0.000114577 -284.769 326.31 7.78569 7.78595 0.293711 0.330414 2645440.0
1145 -0.03445 0.000114585 -284.751 326.337 7.78687 7.78648 0.380871 -0.00287216 2645630.0
1144 -0.03435 0.00011459 -284.738 326.323 7.78686 7.78696 0.18105 -0.109685 2645640.0
1143 -0.03425 0.000114574 -284.776 326.339 7.78619 7.78574 0.63015 0.470069 2645460.0
1142 -0.03415 0.000114573 -284.776 326.334 7.78598 7.78559 0.609603 0.524085 2645380.0
1141 -0.03405 0.000114586 -284.745 326.33 7.78681 7.78663 0.28893 0.0465654 2645620.0
1140 -0.03395 0.000114582 -284.755 326.313 7.7861 7.78635 0.24175 0.251139 2645490.0
1139 -0.03385 0.000114581 -284.758 326.341 7.78669 7.7862 0.519513 0.276542 2645570.0
1138 -0.03375 0.000114576 -284.771 326.333 7.78618 7.78576 0.505602 0.417523 2645420.0
1137 -0.03365 0.000114577 -284.766 326.317 7.78587 7.786 0.36428 0.436634 2645400.0
1136 -0.03355 0.000114581 -284.76 326.289 7.78544 7.78611 0.00187649 0.219061 2645240.0
1135 -0.03345 0.00011457 -284.786 326.294 7.78488 7.78532 0.249777 0.612102 2645110.0
1134 -0.03335 0.000114571 -284.787 326.288 7.78474 7.78529 0.216286 0.671653 2645030.0
1133 -0.03325 0.000114573 -284.78 326.296 7.78507 7.78543 0.272782 0.608248 2645150.0
1132 -0.03315 0.00011458 -284.762 326.308 7.78589 7.78591 0.222441 0.136628 2645300.0
1131 -0.03305 0.000114583 -284.76 326.29 7.7856 7.7862 0.0119242 0.0743318 2645330.0
1130 -0.03295 0.000114589 -284.742 326.302 7.78631 7.78653 0.0122958 -0.169492 2645360.0
1129 -0.03285 0.000114587 -284.748 326.281 7.78565 7.78646 -0.191013 -0.0958973 2645220.0
1128 -0.03275 0.000114583 -284.758 326.289 7.7856 7.78614 0.00768344 0.0919287 2645230.0
1127 -0.03265 0.000114571 -284.788 326.301 7.7851 7.78507 0.323866 0.493827 2645040.0
1126 -0.03255 0.000114586 -284.752 326.309 7.78625 7.78632 0.111986 0.0155577 2645390.0
1125 -0.03245 0.000114586 -284.754 326.285 7.78571 7.78625 -0.00840834 0.114427 2645100.0
1124 -0.03235 0.00011457 -284.79 326.278 7.78449 7.78511 0.113382 0.452754 2644760.0
1123 -0.03225 0.000114583 -284.759 326.292 7.78566 7.78614 0.0129085 -0.0552858 2645010.0
1122 -0.03215 0.000114588 -284.743 326.294 7.78609 7.78638 -0.0949937 -0.389105 2644950.0
1121 -0.03205 0.000114566 -284.798 326.301 7.78476 7.78465 0.433743 0.377951 2644650.0
1120 -0.03195 0.000114554 -284.828 326.315 7.78425 7.7839 0.79055 0.708155 2644630.0
1119 -0.03185 0.000114561 -284.809 326.312 7.78469 7.78441 0.6252 0.511593 2644700.0
1118 -0.03175 0.000114575 -284.776 326.3 7.78532 7.7855 0.229265 0.0205441 2644940.0
1117 -0.03165 0.000114568 -284.793 326.281 7.78438 7.78491 0.1538 0.270259 2644650.0
1116 -0.03155 0.000114571 -284.789 326.258 7.78401 7.78512 -0.0883719 0.153343 2644600.0
1115 -0.03145 0.000114558 -284.817 326.278 7.78366 7.78398 0.329675 0.466346 2644500.0
1114 -0.03135 0.000114557 -284.823 326.288 7.7838 7.78405 0.496792 0.712466 2644590.0
1113 -0.03125 0.000114556 -284.826 326.285 7.78367 7.78382 0.458098 0.609468 2644550.0
1112 -0.03115 0.000114564 -284.805 326.28 7.78411 7.78467 0.318425 0.354224 2644750.0
1111 -0.03105 0.000114551 -284.837 326.261 7.78275 7.78352 0.338504 0.781117 2644320.0
1110 -0.03095 0.000114559 -284.818 326.252 7.7831 7.78422 0.115089 0.487615 2644440.0
1109 -0.03085 0.000114548 -284.847 326.278 7.78293 7.78319 0.578831 0.717014 2644380.0
1108 -0.03075 0.000114548 -284.845 326.302 7.78357 7.78334 0.831543 0.787691 2644510.0
1107 -0.03065 0.000114555 -284.83 326.309 7.78421 7.78385 0.77615 0.501131 2644630.0
1106 -0.03055 0.000114565 -284.806 326.292 7.78442 7.78467 0.438549 0.212248 2644670.0
1105 -0.03045 0.000114571 -284.79 326.266 7.78423 7.78522 0.0133269 -0.177903 2644660.0
1104 -0.03035 0.000114566 -284.798 326.259 7.78377 7.78461 0.0952186 -0.0906805 2644420.0
1103 -0.03025 0.000114561 -284.814 326.279 7.78385 7.78433 0.349313 0.0742134 2644370.0
1102 -0.03015 0.000114567 -284.8 326.264 7.78389 7.78477 0.0940771 -0.13761 2644340.0
1101 -0.03005 0.000114557 -284.825 326.25 7.78291 7.7839 0.151484 0.156052 2644090.0
1100 -0.02995 0.000114548 -284.846 326.261 7.78257 7.78332 0.455715 0.345061 2644100.0
1099 -0.02985 0.000114559 -284.821 326.243 7.78284 7.78415 0.0525119 0.0428819 2644090.0
1098 -0.02975 0.00011456 -284.818 326.273 7.78368 7.78431 0.281151 -0.0485276 2644260.0
1097 -0.02965 0.00011456 -284.815 326.275 7.78373 7.78429 0.30868 -0.0833287 2644260.0
1096 -0.02955 0.000114562 -284.812 326.275 7.78383 7.78445 0.293665 -0.0930561 2644250.0
1095 -0.02945 0.000114546 -284.849 326.273 7.78272 7.78326 0.511223 0.368824 2644060.0
1094 -0.02935 0.00011454 -284.864 326.246 7.78163 7.78271 0.358995 0.513788 2643730.0
1093 -0.02925 0.000114548 -284.845 326.228 7.78178 7.78327 -0.0109882 0.124775 2643670.0
1092 -0.02915 0.000114544 -284.854 326.224 7.78142 7.78299 0.114412 0.181497 2643570.0
1091 -0.02905 0.000114525 -284.903 326.244 7.78058 7.78146 0.569607 0.771111 2643300.0
1090 -0.02895 0.000114535 -284.877 326.237 7.78111 7.78219 0.35334 0.356675 2643330.0
1089 -0.02885 0.000114532 -284.886 326.243 7.78102 7.78209 0.51298 0.493172 2643410.0
1088 -0.02875 0.000114533 -284.884 326.248 7.7812 7.7822 0.505267 0.364406 2643500.0
1087 -0.02865 0.000114522 -284.909 326.252 7.78059 7.78121 0.737587 0.602839 2643200.0
1086 -0.02855 0.000114521 -284.915 326.235 7.78008 7.78123 0.610546 0.54578 2643070.0
1085 -0.02845 0.00011452 -284.917 326.235 7.78003 7.78113 0.65327 0.606953 2643030.0
1084 -0.02835 0.000114529 -284.891 326.214 7.78016 7.78188 0.230367 0.152492 2643020.0
1083 -0.02825 0.000114523 -284.907 326.213 7.77973 7.78126 0.284142 0.355673 2642840.0
1082 -0.02815 0.000114511 -284.936 326.21 7.77881 7.78037 0.510033 0.842637 2642570.0
1081 -0.02805 0.000114505 -284.952 326.211 7.77845 7.77991 0.607082 0.986105 2642540.0
1080 -0.02795 0.000114505 -284.951 326.191 7.77796 7.78006 0.435552 1.01949 2642510.0
1079 -0.02785 0.000114501 -284.96 326.209 7.77813 7.77983 0.664265 1.10957 2642580.0
1078 -0.02775 0.000114522 -284.907 326.234 7.78015 7.78151 0.510123 0.334634 2643070.0
1077 -0.02765 0.000114511 -284.936 326.219 7.77903 7.78075 0.593974 0.837176 2642900.0
1076 -0.02755 0.000114508 -284.944 326.215 7.77874 7.78031 0.634251 0.922333 2642760.0
1075 -0.02745 0.00011451 -284.939 326.209 7.77871 7.7804 0.567606 0.714072 2642740.0
1074 -0.02735 0.000114498 -284.971 326.234 7.77851 7.77938 0.973415 1.00342 2642590.0
1073 -0.02725 0.00011451 -284.941 326.228 7.7792 7.78025 0.717797 0.543491 2642710.0
1072 -0.02715 0.00011451 -284.943 326.229 7.77919 7.78029 0.743506 0.544227 2642690.0
1071 -0.02705 0.00011451 -284.939 326.236 7.77938 7.78055 0.730113 0.465718 2642700.0
1070 -0.02695 0.000114513 -284.931 326.23 7.77945 7.78074 0.706175 0.494749 2642680.0
1069 -0.02685 0.000114493 -284.979 326.234 7.7782 7.77936 1.06435 1.129 2642470.0
1068 -0.02675 0.000114484 -285.005 326.236 7.77762 7.77843 1.26322 1.33419 2642250.0
1067 -0.02665 0.000114506 -284.95 326.259 7.77966 7.7803 1.08622 0.541219 2642750.0
1066 -0.02655 0.000114508 -284.944 326.233 7.77917 7.78028 0.779776 0.364303 2642540.0
1065 -0.02645 0.000114488 -284.997 326.217 7.7774 7.77868 0.951159 1.02633 2642070.0
1064 -0.02635 0.000114494 -284.981 326.228 7.7781 7.77925 0.943745 0.763521 2642200.0
1063 -0.02625 0.000114485 -285.0 326.218 7.77729 7.77845 1.06497 0.916641 2641860.0
1062 -0.02615 0.000114473 -285.034 326.2 7.776 7.7775 1.1305 1.29002 2641540.0
1061 -0.02605 0.000114473 -285.032 326.2 7.77603 7.77749 1.11196 1.17639 2641450.0
1060 -0.02595 0.000114483 -285.008 326.188 7.77639 7.77826 0.791496 0.641787 2641480.0
1059 -0.02585 0.000114466 -285.052 326.196 7.77545 7.77694 1.23979 1.03616 2641230.0
1058 -0.02575 0.000114468 -285.049 326.182 7.77523 7.77699 1.0517 0.884444 2641100.0
1057 -0.02565 0.000114462 -285.058 326.197 7.77523 7.77661 1.27931 0.945898 2641060.0
1056 -0.02555 0.000114455 -285.08 326.19 7.77453 7.77602 1.3637 1.24793 2640860.0
1055 -0.02545 0.000114466 -285.05 326.208 7.77575 7.77705 1.26976 0.770339 2641110.0
1054 -0.02535 0.000114462 -285.059 326.163 7.77436 7.77685 0.93912 0.950443 2640830.0
1053 -0.02525 0.000114458 -285.071 326.162 7.77405 7.77636 1.04527 1.09643 2640720.0
1052 -0.02515 0.000114444 -285.106 326.157 7.77299 7.77516 1.25906 1.34886 2640410.0
1051 -0.02505 0.000114453 -285.083 326.156 7.77361 7.77594 1.11037 1.07171 2640520.0
1050 -0.02495 0.000114472 -285.034 326.138 7.77449 7.77736 0.558816 0.285573 2640590.0
1049 -0.02485 0.000114441 -285.114 326.138 7.77235 7.77481 1.14418 1.17217 2640050.0
1048 -0.02475 0.000114437 -285.122 326.115 7.77153 7.7746 0.932595 1.19132 2639730.0
1047 -0.02465 0.000114428 -285.144 326.143 7.7716 7.77381 1.38679 1.39185 2639670.0
1046 -0.02455 0.000114435 -285.128 326.124 7.77162 7.77455 1.07959 1.17468 2639680.0
1045 -0.02445 0.000114453 -285.085 326.124 7.77281 7.77572 0.757966 0.565665 2639860.0
1044 -0.02435 0.000114441 -285.112 326.116 7.77185 7.77491 0.826375 0.891946 2639570.0
1043 -0.02425 0.000114433 -285.131 326.138 7.77185 7.77435 1.20015 0.998874 2639580.0
1042 -0.02415 0.000114418 -285.167 326.137 7.77076 7.77309 1.50115 1.48563 2639300.0
1041 -0.02405 0.000114407 -285.196 326.13 7.76988 7.77229 1.62107 1.90225 2639110.0
1040 -0.02395 0.000114424 -285.157 326.153 7.77154 7.77353 1.56382 1.32567 2639430.0
1039 -0.02385 0.00011443 -285.142 326.146 7.77182 7.77407 1.38919 1.05051 2639520.0
1038 -0.02375 0.000114415 -285.181 326.148 7.7708 7.7728 1.69799 1.56615 2639230.0
1037 -0.02365 0.000114428 -285.147 326.137 7.77148 7.77376 1.32386 0.987637 2639270.0
1036 -0.02355 0.000114431 -285.138 326.109 7.77099 7.77412 0.952861 0.939167 2639110.0
1035 -0.02345 0.000114415 -285.178 326.12 7.7702 7.77288 1.38926 1.45931 2638900.0
1034 -0.02335 0.000114416 -285.174 326.137 7.77064 7.77293 1.46907 1.21688 2638870.0
1033 -0.02325 0.000114392 -285.233 326.13 7.76883 7.77091 1.90063 1.85262 2638310.0
1032 -0.02315 0.000114372 -285.282 326.107 7.76693 7.76932 2.05621 2.26721 2637730.0
1031 -0.02305 0.000114364 -285.303 326.094 7.76607 7.7687 2.11535 2.3845 2637480.0
1030 -0.02295 0.000114361 -285.309 326.099 7.76598 7.76838 2.1699 2.27496 2637250.0
1029 -0.02285 0.000114357 -285.323 326.093 7.76557 7.76832 2.25145 2.35983 2637290.0
1028 -0.02275 0.000114353 -285.329 326.097 7.7654 7.76783 2.31921 2.29016 2637070.0
1027 -0.02265 0.00011435 -285.337 326.083 7.7649 7.76762 2.24295 2.17826 2636990.0
1026 -0.02255 0.000114358 -285.316 326.079 7.7653 7.76811 2.05313 1.84781 2636990.0
1025 -0.02245 0.000114354 -285.33 326.072 7.76486 7.76785 2.05742 1.91621 2636870.0
1024 -0.02235 0.000114358 -285.319 326.071 7.76513 7.76819 2.00534 1.70112 2636860.0
1023 -0.02225 0.000114351 -285.335 326.07 7.7646 7.76762 2.11654 1.71472 2636640.0
1022 -0.02215 0.000114357 -285.318 326.056 7.7647 7.76817 1.87815 1.51339 2636590.0
1021 -0.02205 0.000114329 -285.387 326.036 7.76235 7.76591 2.15113 2.21574 2635920.0
1020 -0.02195 0.000114336 -285.372 326.028 7.76265 7.76649 1.95839 1.71204 2635920.0
1019 -0.02185 0.000114326 -285.398 326.009 7.76147 7.76569 1.9517 1.92074 2635600.0
1018 -0.02175 0.000114316 -285.422 326.026 7.76122 7.7647 2.3175 2.096 2635440.0
1017 -0.02165 0.000114318 -285.418 325.989 7.76045 7.76507 1.88489 1.85792 2635240.0
1016 -0.02155 0.000114308 -285.443 325.951 7.75884 7.76427 1.72969 2.02818 2634860.0
1015 -0.02145 0.000114293 -285.478 325.94 7.75762 7.76278 1.90475 2.33415 2634360.0
1014 -0.02135 0.000114297 -285.469 325.962 7.75841 7.76325 1.99868 1.96442 2634530.0
1013 -0.02125 0.000114284 -285.504 325.954 7.75732 7.76213 2.19381 2.18596 2634110.0
1012 -0.02115 0.000114272 -285.533 325.912 7.75548 7.76115 1.95629 2.42494 2633610.0
1011 -0.02105 0.00011428 -285.515 325.95 7.75695 7.7618 2.22047 2.01821 2633980.0
1010 -0.02095 0.000114267 -285.547 325.9 7.75485 7.76056 2.0092 2.41081 2633320.0
1009 -0.02085 0.000114275 -285.527 325.896 7.75533 7.76143 1.77043 1.94689 2633430.0
1008 -0.02075 0.000114263 -285.558 325.887 7.75431 7.76028 1.91247 2.14456 2633020.0
1007 -0.02065 0.000114254 -285.583 325.873 7.75333 7.75952 1.88319 2.28818 2632720.0
1006 -0.02055 0.000114243 -285.609 325.895 7.7531 7.75865 2.35254 2.48356 2632590.0
1005 -0.02045 0.000114238 -285.621 325.908 7.75308 7.75828 2.64463 2.59649 2632450.0
1004 -0.02035 0.000114223 -285.66 325.895 7.75177 7.75706 2.79693 2.86672 2632050.0
1003 -0.02025 0.00011421 -285.692 325.874 7.75041 7.75606 2.85325 2.89138 2631650.0
1002 -0.02015 0.0001142 -285.719 325.841 7.74889 7.75529 2.68518 2.94947 2631160.0
1001 -0.02005 0.000114203 -285.709 325.825 7.74873 7.75552 2.54584 2.59138 2631070.0
1000 -0.01995 0.000114186 -285.749 325.84 7.74798 7.7543 2.95925 2.91706 2630740.0
999 -0.01985 0.00011418 -285.762 325.802 7.74665 7.75371 2.72784 2.91039 2630210.0
998 -0.01975 0.000114183 -285.755 325.806 7.74691 7.75399 2.73536 2.57552 2630210.0
997 -0.01965 0.000114172 -285.781 325.806 7.7462 7.7532 2.88587 2.75783 2629970.0
996 -0.01955 0.000114161 -285.806 325.797 7.74525 7.75247 2.96941 2.97142 2629610.0
995 -0.01945 0.000114158 -285.815 325.771 7.74443 7.75215 2.79535 2.84862 2629330.0
994 -0.01935 0.000114148 -285.841 325.762 7.74348 7.75121 2.92697 2.94745 2629050.0
993 -0.01925 0.000114151 -285.831 325.745 7.7433 7.75153 2.68202 2.46609 2628920.0
992 -0.01915 0.00011412 -285.905 325.741 7.74113 7.74908 3.24556 3.24282 2628290.0
991 -0.01905 0.000114109 -285.934 325.71 7.73964 7.74813 3.11173 3.25035 2627780.0
990 -0.01895 0.00011411 -285.93 325.68 7.739 7.74839 2.9221 3.02343 2627610.0
989 -0.01885 0.000114093 -285.971 325.681 7.73783 7.74715 3.13677 3.23964 2627140.0
988 -0.01875 0.000114072 -286.024 325.669 7.73619 7.74547 3.4386 3.6498 2626560.0
987 -0.01865 0.000114063 -286.046 325.677 7.73572 7.74455 3.70879 3.71165 2626260.0
986 -0.01855 0.00011406 -286.056 325.668 7.73529 7.7444 3.6685 3.5374 2625970.0
985 -0.01845 0.000114055 -286.068 325.63 7.73409 7.74393 3.39317 3.46947 2625560.0
984 -0.01835 0.000114048 -286.082 325.625 7.73352 7.74362 3.44139 3.50682 2625290.0
983 -0.01825 0.000114055 -286.066 325.627 7.73399 7.74404 3.39508 3.20897 2625230.0
982 -0.01815 0.000114022 -286.149 325.598 7.7311 7.74135 3.70421 4.11392 2624330.0
981 -0.01805 0.000114009 -286.18 325.592 7.73008 7.74023 3.90342 4.26914 2623930.0
980 -0.01795 0.000113987 -286.238 325.577 7.72819 7.73845 4.15781 4.61875 2623330.0
979 -0.01785 0.000113968 -286.284 325.581 7.72699 7.73687 4.57005 4.81366 2622870.0
978 -0.01775 0.000113966 -286.289 325.558 7.72635 7.73674 4.42455 4.60162 2622580.0
977 -0.01765 0.000113962 -286.299 325.519 7.72512 7.73651 4.11125 4.52306 2622080.0
976 -0.01755 0.000113939 -286.358 325.519 7.72358 7.73457 4.53819 4.8811 2621500.0
975 -0.01745 0.00011392 -286.403 325.504 7.72192 7.73293 4.71035 5.1434 2620890.0
974 -0.01735 0.000113909 -286.43 325.491 7.72087 7.73201 4.84062 5.18499 2620450.0
973 -0.01725 0.00011391 -286.427 325.452 7.72 7.73215 4.42395 4.89669 2620260.0
972 -0.01715 0.000113893 -286.469 325.455 7.71894 7.73075 4.73072 5.07986 2619750.0
971 -0.01705 0.000113886 -286.487 325.441 7.71811 7.73032 4.71277 4.96712 2619450.0
970 -0.01695 0.00011386 -286.549 325.416 7.7158 7.7282 4.95084 5.3997 2618680.0
969 -0.01685 0.000113858 -286.554 325.425 7.71584 7.72798 5.08059 5.20321 2618480.0
968 -0.01675 0.000113842 -286.599 325.374 7.71354 7.72654 4.99343 5.40986 2617710.0
967 -0.01665 0.000113826 -286.636 325.323 7.71128 7.72547 4.67057 5.46168 2617040.0
966 -0.01655 0.000113821 -286.646 325.306 7.71053 7.72497 4.62611 5.10055 2616670.0
965 -0.01645 0.0001138 -286.698 325.3 7.70894 7.72342 4.96449 5.46533 2616160.0
964 -0.01635 0.000113781 -286.743 325.309 7.70786 7.72182 5.45626 5.65847 2615650.0
963 -0.01625 0.000113771 -286.769 325.3 7.70699 7.72117 5.4778 5.50506 2615190.0
962 -0.01615 0.000113756 -286.807 325.269 7.70523 7.7199 5.50559 5.60024 2614490.0
961 -0.01605 0.000113735 -286.859 325.227 7.70284 7.71829 5.4752 5.77074 2613650.0
960 -0.01595 0.000113722 -286.892 325.221 7.70182 7.71711 5.70349 5.75097 2613170.0
959 -0.01585 0.000113702 -286.944 325.21 7.70021 7.7156 6.01647 6.18821 2612670.0
958 -0.01575 0.000113676 -287.008 325.168 7.69747 7.71339 6.06039 6.56306 2611760.0
957 -0.01565 0.000113664 -287.043 325.137 7.6959 7.7124 6.01187 6.46587 2611140.0
956 -0.01555 0.000113643 -287.096 325.083 7.69319 7.71059 5.83285 6.52282 2610090.0
955 -0.01545 0.000113624 -287.142 325.086 7.69195 7.70917 6.25061 6.66867 2609630.0