ITEM: TIMESTEP
40000
ITEM: NUMBER OF CELLS
1300
ITEM: BOX BOUNDS os pp pp
-0.08 0.05
-0.001 0.001
-0.001 0.001
ITEM: CELLS id f_1[1] f_1[2] f_1[3] f_1[4] f_1[5] f_1[6] f_1[7] f_1[8] f_1[9] 
1 -0.07995 8.83412e-05 369.387 273.141 5.02481 5.02411 -0.293262 -0.717747 1.42791e+06 
2 -0.07985 8.83535e-05 369.335 273.159 5.02585 5.02585 -0.215579 -0.609441 1.42839e+06 
3 -0.07975 8.8344e-05 369.375 273.16 5.02533 5.02451 -0.433214 -0.740072 1.42816e+06 
4 -0.07965 8.83455e-05 369.371 273.168 5.02555 5.02462 -0.512165 -0.722816 1.42826e+06 
5 -0.07955 8.83424e-05 369.384 273.16 5.02524 5.02413 -0.465151 -0.773222 1.42812e+06 
6 -0.07945 8.83369e-05 369.408 273.147 5.02467 5.02329 -0.423505 -0.79288 1.42788e+06 
7 -0.07935 8.83357e-05 369.413 273.166 5.02497 5.02317 -0.691521 -0.882415 1.42801e+06 
8 -0.07925 8.83262e-05 369.455 273.118 5.02354 5.02189 -0.392942 -0.954918 1.42741e+06 
9 -0.07915 8.83298e-05 369.439 273.126 5.02389 5.02228 -0.423083 -0.832037 1.42751e+06 
10 -0.07905 8.83308e-05 369.434 273.127 5.02397 5.02248 -0.383924 -0.775954 1.42755e+06 
11 -0.07895 8.83326e-05 369.425 273.129 5.02411 5.02265 -0.347362 -0.740854 1.42761e+06 
12 -0.07885 8.83342e-05 369.421 273.132 5.02426 5.02282 -0.384665 -0.793385 1.42768e+06 
13 -0.07875 8.83285e-05 369.444 273.118 5.02367 5.02207 -0.350546 -0.825049 1.42748e+06 
14 -0.07865 8.83236e-05 369.466 273.099 5.02305 5.02155 -0.27728 -1.0096 1.4273e+06 
15 -0.07855 8.83366e-05 369.411 273.137 5.02448 5.02324 -0.418208 -0.773358 1.42789e+06 
16 -0.07845 8.83296e-05 369.436 273.135 5.02404 5.02232 -0.484968 -0.730632 1.4277e+06 
17 -0.07835 8.83347e-05 369.418 273.118 5.02402 5.02304 -0.21812 -0.6273 1.42771e+06 
18 -0.07825 8.8338e-05 369.404 273.13 5.02442 5.02333 -0.314033 -0.581747 1.42784e+06 
19 -0.07815 8.83262e-05 369.453 273.117 5.02352 5.02182 -0.383308 -0.717744 1.42748e+06 
20 -0.07805 8.83249e-05 369.459 273.12 5.02351 5.02155 -0.466495 -0.724557 1.42745e+06 
21 -0.07795 8.83174e-05 369.488 273.107 5.02284 5.02057 -0.471849 -0.728711 1.4272e+06 
22 -0.07785 8.8321e-05 369.475 273.118 5.02324 5.02108 -0.521992 -0.723018 1.42739e+06 
23 -0.07775 8.83144e-05 369.503 273.13 5.02309 5.02024 -0.797378 -0.864046 1.42737e+06 
24 -0.07765 8.83257e-05 369.458 273.129 5.02372 5.02162 -0.512864 -0.610344 1.42755e+06 
25 -0.07755 8.83292e-05 369.442 273.128 5.02389 5.02197 -0.455604 -0.574728 1.42763e+06 
26 -0.07745 8.83333e-05 369.426 273.108 5.02376 5.0227 -0.206113 -0.671818 1.42767e+06 
27 -0.07735 8.83401e-05 369.395 273.132 5.02458 5.02363 -0.221235 -0.603529 1.42795e+06 
28 -0.07725 8.83473e-05 369.363 273.142 5.02518 5.02467 -0.179755 -0.609329 1.42827e+06 
29 -0.07715 8.83447e-05 369.372 273.151 5.0252 5.02441 -0.332863 -0.637031 1.42835e+06 
30 -0.07705 8.83388e-05 369.397 273.127 5.02442 5.02362 -0.233386 -0.739467 1.42806e+06 
31 -0.07695 8.83371e-05 369.402 273.134 5.02445 5.02349 -0.346484 -0.813202 1.42809e+06 
32 -0.07685 8.83326e-05 369.42 273.137 5.02425 5.02284 -0.436439 -0.82288 1.42797e+06 
33 -0.07675 8.83348e-05 369.412 273.149 5.0246 5.02308 -0.549828 -0.794768 1.42818e+06 
34 -0.07665 8.83328e-05 369.424 273.116 5.02388 5.02266 -0.255683 -0.710415 1.42789e+06 
35 -0.07655 8.83331e-05 369.422 273.118 5.02394 5.02282 -0.306601 -0.785489 1.42793e+06 
36 -0.07645 8.83423e-05 369.385 273.134 5.02474 5.02396 -0.314366 -0.721339 1.42823e+06 
37 -0.07635 8.83397e-05 369.396 273.138 5.02467 5.02367 -0.428543 -0.890395 1.42826e+06 
38 -0.07625 8.83407e-05 369.395 273.139 5.02475 5.02368 -0.390148 -0.790068 1.42827e+06 
39 -0.07615 8.8358e-05 369.326 273.142 5.02579 5.02586 -0.128261 -0.511747 1.42874e+06 
40 -0.07605 8.83569e-05 369.33 273.155 5.02595 5.02572 -0.216799 -0.508565 1.42884e+06 
41 -0.07595 8.83473e-05 369.368 273.131 5.02498 5.02439 -0.196496 -0.630542 1.42845e+06 
42 -0.07585 8.83452e-05 369.377 273.144 5.02509 5.02428 -0.400281 -0.71634 1.42857e+06 
43 -0.07575 8.8352e-05 369.347 273.171 5.02599 5.02521 -0.521858 -0.690668 1.42895e+06 
44 -0.07565 8.83468e-05 369.37 273.181 5.02586 5.02446 -0.722678 -0.692797 1.4289e+06 
45 -0.07555 8.83456e-05 369.375 273.166 5.02552 5.02421 -0.603293 -0.666237 1.42869e+06 
46 -0.07545 8.83454e-05 369.376 273.177 5.02572 5.02425 -0.741224 -0.698382 1.42881e+06 
47 -0.07535 8.83397e-05 369.4 273.163 5.02513 5.0236 -0.68202 -0.768563 1.42862e+06 
48 -0.07525 8.83243e-05 369.464 273.15 5.02402 5.02152 -0.87572 -0.902967 1.42821e+06 
49 -0.07515 8.83388e-05 369.404 273.139 5.02464 5.02326 -0.487336 -0.647552 1.42845e+06 
50 -0.07505 8.83384e-05 369.406 273.138 5.0246 5.0233 -0.446834 -0.673353 1.42844e+06 
51 -0.07495 8.83496e-05 369.362 273.154 5.02553 5.02476 -0.420458 -0.586072 1.42879e+06 
52 -0.07485 8.83479e-05 369.368 273.177 5.02585 5.02455 -0.625132 -0.581202 1.42887e+06 
53 -0.07475 8.83465e-05 369.371 273.155 5.02538 5.02438 -0.434954 -0.583726 1.42866e+06 
54 -0.07465 8.83445e-05 369.379 273.164 5.02542 5.02406 -0.579428 -0.614864 1.42865e+06 
55 -0.07455 8.83473e-05 369.368 273.131 5.02498 5.02457 -0.208762 -0.583958 1.42853e+06 
56 -0.07445 8.83433e-05 369.386 273.143 5.02498 5.02385 -0.39253 -0.600307 1.42845e+06 
57 -0.07435 8.83519e-05 369.346 273.148 5.02555 5.02512 -0.252283 -0.482946 1.42875e+06 
58 -0.07425 8.83586e-05 369.321 273.161 5.02617 5.02594 -0.238908 -0.349105 1.42897e+06 
59 -0.07415 8.83561e-05 369.328 273.179 5.02636 5.02571 -0.440426 -0.405599 1.42904e+06 
60 -0.07405 8.83546e-05 369.336 273.172 5.02615 5.02558 -0.423247 -0.446331 1.42903e+06 
61 -0.07395 8.83463e-05 369.371 273.135 5.02498 5.02442 -0.240306 -0.594909 1.42854e+06 
68 -0.07325 8.83521e-05 369.352 273.159 5.02576 5.02482 -0.428181 -0.414122 1.42878e+06 
65 -0.07355 8.83431e-05 369.384 273.121 5.02456 5.02385 -0.163842 -0.42015 1.42837e+06 
66 -0.07345 8.8348e-05 369.366 273.158 5.02552 5.02455 -0.443837 -0.506671 1.42875e+06 
67 -0.07335 8.8352e-05 369.35 273.16 5.02578 5.02498 -0.381459 -0.442754 1.42883e+06 
69 -0.07315 8.83623e-05 369.309 273.167 5.02649 5.02631 -0.255713 -0.336445 1.42912e+06 
70 -0.07305 8.83538e-05 369.344 273.159 5.02587 5.02505 -0.400786 -0.385841 1.42884e+06 
71 -0.07295 8.83558e-05 369.337 273.162 5.02604 5.02532 -0.357089 -0.32705 1.42894e+06 
72 -0.07285 8.83418e-05 369.395 273.147 5.02497 5.02338 -0.512982 -0.539921 1.42846e+06 
73 -0.07275 8.83608e-05 369.319 273.159 5.02627 5.02587 -0.271075 -0.295914 1.42903e+06 
74 -0.07265 8.83642e-05 369.304 273.166 5.02658 5.02644 -0.214298 -0.189441 1.42919e+06 
75 -0.07255 8.83534e-05 369.349 273.177 5.02617 5.02492 -0.598405 -0.3858 1.42905e+06 
76 -0.07245 8.83529e-05 369.352 273.153 5.0257 5.02487 -0.342157 -0.420166 1.42886e+06 
77 -0.07235 8.83493e-05 369.365 273.162 5.02566 5.02448 -0.516753 -0.540289 1.42887e+06 
78 -0.07225 8.83496e-05 369.368 273.172 5.02587 5.02457 -0.630387 -0.568492 1.42899e+06 
79 -0.07215 8.83642e-05 369.302 273.18 5.02684 5.02655 -0.382133 -0.334039 1.42933e+06 
80 -0.07205 8.8352e-05 369.356 273.176 5.02607 5.02478 -0.62161 -0.45126 1.42901e+06 
81 -0.07195 8.83468e-05 369.377 273.172 5.02571 5.02405 -0.666107 -0.502857 1.42882e+06 
82 -0.07185 8.83552e-05 369.345 273.179 5.02631 5.02524 -0.596127 -0.42358 1.42911e+06 
62 -0.07385 8.83421e-05 369.386 273.13 5.02466 5.02377 -0.245971 -0.535029 1.42839e+06 
63 -0.07375 8.83529e-05 369.343 273.144 5.02554 5.02511 -0.222482 -0.436319 1.42877e+06 
64 -0.07365 8.83433e-05 369.383 273.134 5.0248 5.02398 -0.294293 -0.49968 1.42848e+06 
83 -0.07175 8.83511e-05 369.361 273.156 5.02566 5.02459 -0.464332 -0.433367 1.42884e+06 
84 -0.07165 8.83446e-05 369.39 273.142 5.02502 5.02366 -0.435543 -0.489286 1.42858e+06 
85 -0.07155 8.83504e-05 369.364 273.123 5.025 5.0245 -0.125243 -0.429352 1.42859e+06 
86 -0.07145 8.83525e-05 369.353 273.149 5.0256 5.02484 -0.310235 -0.315817 1.42882e+06 
87 -0.07135 8.83579e-05 369.33 273.158 5.02607 5.02555 -0.345349 -0.227212 1.42902e+06 
88 -0.07125 8.83554e-05 369.345 273.137 5.02555 5.02511 -0.172695 -0.150179 1.42877e+06 
89 -0.07115 8.83519e-05 369.354 273.131 5.02524 5.02478 -0.190468 -0.297478 1.42867e+06 
90 -0.07105 8.83427e-05 369.392 273.106 5.02427 5.02342 -0.128933 -0.372596 1.42824e+06 
91 -0.07095 8.83433e-05 369.39 273.12 5.02455 5.02352 -0.241761 -0.350292 1.42837e+06 
92 -0.07085 8.83409e-05 369.401 273.131 5.02461 5.02314 -0.422755 -0.353881 1.42838e+06 
93 -0.07075 8.8355e-05 369.341 273.15 5.02577 5.02524 -0.326937 -0.226482 1.42898e+06 
94 -0.07065 8.83493e-05 369.362 273.135 5.02516 5.02441 -0.303705 -0.192897 1.42878e+06 
95 -0.07055 8.83439e-05 369.387 273.129 5.02474 5.02361 -0.33326 -0.215724 1.4286e+06 
96 -0.07045 8.83383e-05 369.408 273.102 5.02392 5.02287 -0.179232 -0.218604 1.42823e+06 
97 -0.07035 8.83438e-05 369.389 273.112 5.02442 5.02368 -0.17784 -0.187228 1.42846e+06 
98 -0.07025 8.83539e-05 369.345 273.113 5.02502 5.02508 0.027914 -0.111958 1.42874e+06 
99 -0.07015 8.83478e-05 369.368 273.107 5.02456 5.02425 0.0072303 -0.0558482 1.42849e+06 
100 -0.07005 8.8355e-05 369.342 273.118 5.02518 5.02524 -0.0128624 -0.019898 1.42874e+06 
101 -0.06995 8.83564e-05 369.336 273.116 5.02521 5.02542 0.0541135 6.9383e-05 1.42872e+06 
102 -0.06985 8.83673e-05 369.289 273.146 5.0264 5.02674 -0.0187378 0.182808 1.42917e+06 
103 -0.06975 8.83716e-05 369.271 273.166 5.027 5.02739 -0.144442 0.109462 1.42946e+06 
104 -0.06965 8.83609e-05 369.318 273.14 5.02591 5.02592 -0.0898295 -0.0274247 1.42903e+06 
105 -0.06955 8.83524e-05 369.352 273.121 5.02508 5.02486 -0.0667302 -0.137603 1.42872e+06 
106 -0.06945 8.83669e-05 369.293 273.137 5.0262 5.02678 0.0715587 0.0631875 1.42923e+06 
107 -0.06935 8.83718e-05 369.269 273.138 5.02651 5.02753 0.161735 0.0888198 1.42937e+06 
108 -0.06925 8.83643e-05 369.304 273.126 5.02586 5.02642 0.0731348 0.00335473 1.42911e+06 
109 -0.06915 8.83698e-05 369.276 273.139 5.02641 5.02732 0.145506 0.10129 1.42937e+06 
110 -0.06905 8.83612e-05 369.311 273.127 5.02569 5.0261 0.0307746 0.00925199 1.42911e+06 
111 -0.06895 8.83493e-05 369.363 273.122 5.02493 5.02443 -0.139995 -0.0924917 1.42868e+06 
112 -0.06885 8.83456e-05 369.38 273.11 5.02449 5.02382 -0.127467 -0.102965 1.4285e+06 
113 -0.06875 8.83631e-05 369.305 273.141 5.02605 5.02623 -0.0522526 0.101413 1.42914e+06 
114 -0.06865 8.83443e-05 369.385 273.114 5.0245 5.02366 -0.186504 -0.147902 1.4285e+06 
115 -0.06855 8.83563e-05 369.334 273.13 5.02547 5.02543 -0.113168 -0.101621 1.42894e+06 
116 -0.06845 8.83473e-05 369.372 273.112 5.02463 5.02421 -0.13874 -0.182305 1.42859e+06 
117 -0.06835 8.83424e-05 369.391 273.109 5.0243 5.02357 -0.194887 -0.172625 1.42844e+06 
118 -0.06825 8.83449e-05 369.377 273.112 5.02449 5.02396 -0.162912 -0.133554 1.42859e+06 
119 -0.06815 8.83445e-05 369.384 273.093 5.02412 5.02395 0.0126032 -0.210109 1.42848e+06 
120 -0.06805 8.83482e-05 369.368 273.119 5.0248 5.02444 -0.191648 -0.128053 1.42875e+06 
121 -0.06795 8.83402e-05 369.395 273.09 5.02382 5.02343 -0.0614925 -0.235567 1.42836e+06 
122 -0.06785 8.83494e-05 369.362 273.097 5.02446 5.02462 0.115002 -0.119811 1.42857e+06 
135 -0.06655 8.83359e-05 369.417 273.088 5.02353 5.02299 -0.107263 -0.0917855 1.42839e+06 
129 -0.06715 8.83323e-05 369.427 273.096 5.02348 5.02251 -0.256798 -0.385186 1.42831e+06 
130 -0.06705 8.83364e-05 369.41 273.11 5.02398 5.02313 -0.303832 -0.264762 1.42852e+06 
131 -0.06695 8.83327e-05 369.424 273.098 5.02354 5.02252 -0.254651 -0.243846 1.4283e+06 
132 -0.06685 8.83323e-05 369.429 273.111 5.02374 5.02249 -0.427811 -0.249845 1.42844e+06 
133 -0.06675 8.83328e-05 369.428 273.102 5.02361 5.02269 -0.270732 -0.161917 1.42845e+06 
134 -0.06665 8.83276e-05 369.448 273.075 5.02283 5.02182 -0.15226 -0.106341 1.42809e+06 
136 -0.06645 8.83342e-05 369.423 273.082 5.02333 5.0228 -0.0852645 -0.0150829 1.42825e+06 
137 -0.06635 8.83395e-05 369.399 273.065 5.02331 5.02354 0.177593 0.0715555 1.42828e+06 
138 -0.06625 8.83469e-05 369.366 273.086 5.02413 5.02458 0.127935 0.157221 1.42858e+06 
139 -0.06615 8.83387e-05 369.398 273.073 5.02342 5.02365 0.134285 0.0679475 1.42832e+06 
140 -0.06605 8.83381e-05 369.399 273.074 5.0234 5.02362 0.103194 0.043337 1.42834e+06 
141 -0.06595 8.8337e-05 369.4 273.071 5.02328 5.02356 0.120779 0.0343887 1.42829e+06 
142 -0.06585 8.83433e-05 369.378 273.093 5.02404 5.0243 0.0230743 0.13606 1.42861e+06 
143 -0.06575 8.83579e-05 369.311 273.13 5.02556 5.02637 -0.0461133 0.341546 1.42921e+06 
123 -0.06775 8.83502e-05 369.356 273.137 5.02526 5.02478 -0.315029 -0.149677 1.42895e+06 
124 -0.06765 8.83541e-05 369.339 273.138 5.0255 5.02527 -0.240435 -0.0330097 1.42901e+06 
125 -0.06755 8.83544e-05 369.338 273.128 5.02532 5.02532 -0.103535 -0.0106402 1.42897e+06 
126 -0.06745 8.83534e-05 369.34 273.111 5.02496 5.02524 0.0334296 -0.0725712 1.42885e+06 
127 -0.06735 8.83414e-05 369.387 273.117 5.02439 5.02389 -0.288174 -0.32776 1.42873e+06 
128 -0.06725 8.83357e-05 369.412 273.101 5.02376 5.02298 -0.24184 -0.365659 1.42843e+06 
144 -0.06565 8.8359e-05 369.307 273.109 5.02524 5.02657 0.166496 0.280556 1.42914e+06 
145 -0.06555 8.83532e-05 369.332 273.08 5.02437 5.02575 0.345824 0.223085 1.42875e+06 
146 -0.06545 8.83449e-05 369.368 273.096 5.02419 5.02449 0.00745554 0.238349 1.42859e+06 
147 -0.06535 8.83413e-05 369.385 273.08 5.02369 5.02384 0.0913419 0.224131 1.42832e+06 
148 -0.06525 8.8343e-05 369.379 273.103 5.02421 5.02417 -0.102586 0.175906 1.42859e+06 
149 -0.06515 8.83578e-05 369.314 273.126 5.02548 5.02627 -0.0267082 0.30607 1.42909e+06 
150 -0.06505 8.83543e-05 369.33 273.115 5.02507 5.02572 0.0289471 0.234209 1.42887e+06 
151 -0.06495 8.83489e-05 369.353 273.105 5.02458 5.025 0.0118689 0.158809 1.42867e+06 
152 -0.06485 8.83472e-05 369.36 273.107 5.02454 5.02484 -0.0135177 0.173318 1.42865e+06 
153 -0.06475 8.83312e-05 369.424 273.081 5.02313 5.02271 -0.111084 -0.0179673 1.4281e+06 
154 -0.06465 8.83366e-05 369.402 273.078 5.02339 5.02337 0.0305482 0.0874865 1.4282e+06 
155 -0.06455 8.8333e-05 369.418 273.07 5.02304 5.02285 0.0773852 0.18443 1.42802e+06 
156 -0.06445 8.83309e-05 369.424 273.07 5.02292 5.02263 0.0403724 0.203618 1.42798e+06 
157 -0.06435 8.83316e-05 369.418 273.06 5.02277 5.02274 0.170201 0.184112 1.42791e+06 
158 -0.06425 8.83318e-05 369.417 273.071 5.02299 5.02291 0.0523898 0.151614 1.42806e+06 
159 -0.06415 8.83277e-05 369.433 273.074 5.02281 5.0223 -0.0890712 0.18045 1.42796e+06 
160 -0.06405 8.83233e-05 369.452 273.062 5.02234 5.02173 -0.0180122 0.152639 1.42775e+06 
161 -0.06395 8.83295e-05 369.426 273.059 5.02265 5.02273 0.111689 0.110003 1.42795e+06 
162 -0.06385 8.83327e-05 369.414 273.06 5.02284 5.02304 0.189059 0.164905 1.42802e+06 
163 -0.06375 8.8328e-05 369.437 273.07 5.02275 5.02236 -0.00411161 0.0704688 1.428e+06 
164 -0.06365 8.83233e-05 369.455 273.04 5.02194 5.0217 0.166676 -0.01221 1.42769e+06 
165 -0.06355 8.83243e-05 369.451 273.065 5.02246 5.02189 -0.0602498 -0.0092394 1.42797e+06 
166 -0.06345 8.8329e-05 369.43 273.067 5.02276 5.02257 0.00188975 0.082398 1.4281e+06 
167 -0.06335 8.83247e-05 369.449 273.069 5.02255 5.02197 -0.0692519 0.136403 1.42798e+06 
168 -0.06325 8.83152e-05 369.488 273.036 5.0214 5.02072 0.0405856 0.0493133 1.42753e+06 
169 -0.06315 8.83218e-05 369.461 273.052 5.02207 5.02174 0.0277547 0.0552388 1.42781e+06 
170 -0.06305 8.83247e-05 369.447 273.059 5.02236 5.0221 0.0214474 0.0659204 1.42791e+06 
171 -0.06295 8.83296e-05 369.429 273.072 5.02288 5.0227 0.00502302 0.167986 1.4281e+06 
172 -0.06285 8.83366e-05 369.401 273.045 5.02278 5.02352 0.377776 0.260018 1.42805e+06 
173 -0.06275 8.8335e-05 369.408 273.068 5.02312 5.0233 0.133226 0.273671 1.42815e+06 
174 -0.06265 8.83195e-05 369.473 273.05 5.02191 5.02117 0.00927626 0.122991 1.42763e+06 
175 -0.06255 8.83221e-05 369.463 273.024 5.02157 5.02156 0.313248 0.143761 1.4275e+06 
176 -0.06245 8.83198e-05 369.473 273.037 5.02169 5.02117 0.123288 0.179072 1.42752e+06 
177 -0.06235 8.8317e-05 369.48 273.029 5.02137 5.02082 0.16942 0.172679 1.4274e+06 
178 -0.06225 8.83328e-05 369.416 273.058 5.02282 5.02305 0.237174 0.308469 1.4281e+06 
179 -0.06215 8.83273e-05 369.439 273.044 5.02225 5.02214 0.201265 0.107652 1.42782e+06 
180 -0.06205 8.83263e-05 369.444 273.063 5.02253 5.02218 0.00720812 0.0784946 1.42798e+06 
181 -0.06195 8.8334e-05 369.414 273.083 5.02334 5.0232 -0.0893117 0.0821206 1.42829e+06 
182 -0.06185 8.8333e-05 369.418 273.086 5.02334 5.02301 -0.0991414 0.111047 1.42822e+06 
183 -0.06175 8.83278e-05 369.437 273.057 5.0225 5.02234 0.118865 0.119538 1.42788e+06 
202 -0.05985 8.83326e-05 369.415 273.076 5.02313 5.0231 0.0688233 -0.0194646 1.42807e+06 
193 -0.06075 8.83268e-05 369.443 273.051 5.02234 5.02208 0.149937 0.0505513 1.42774e+06 
194 -0.06065 8.83335e-05 369.414 273.09 5.02345 5.02311 -0.11721 0.105814 1.42823e+06 
195 -0.06055 8.83356e-05 369.401 273.073 5.02324 5.02344 0.126988 0.0955959 1.42814e+06 
196 -0.06045 8.83246e-05 369.446 273.06 5.02238 5.02203 0.0224119 -0.0513574 1.4278e+06 
197 -0.06035 8.83327e-05 369.414 273.085 5.0233 5.0231 -0.0640946 0.123672 1.42818e+06 
198 -0.06025 8.83277e-05 369.435 273.069 5.02273 5.02245 0.00644318 0.134701 1.42791e+06 
199 -0.06015 8.83288e-05 369.426 273.066 5.02273 5.0227 0.0793131 0.122891 1.42796e+06 
200 -0.06005 8.83347e-05 369.405 273.078 5.02328 5.02341 0.0411317 0.153235 1.42818e+06 
201 -0.05995 8.83374e-05 369.391 273.066 5.02323 5.02378 0.226547 0.0748273 1.42813e+06 
203 -0.05975 8.83321e-05 369.415 273.071 5.023 5.0231 0.0622545 -0.0849116 1.42805e+06 
184 -0.06165 8.83262e-05 369.446 273.054 5.02236 5.02216 0.0851196 0.116088 1.42789e+06 
185 -0.06155 8.83252e-05 369.447 273.055 5.02232 5.02207 0.0724784 0.0961464 1.42788e+06 
186 -0.06145 8.8338e-05 369.392 273.075 5.02341 5.02393 0.149425 0.184675 1.42836e+06 
187 -0.06135 8.83384e-05 369.394 273.07 5.02335 5.0238 0.179448 0.16355 1.42833e+06 
188 -0.06125 8.8347e-05 369.355 273.071 5.02385 5.02507 0.314921 0.14474 1.42857e+06 
189 -0.06115 8.83381e-05 369.396 273.088 5.02367 5.02389 -0.00689901 0.0486674 1.42847e+06 
190 -0.06105 8.83329e-05 369.414 273.058 5.02281 5.02313 0.172307 0.0640677 1.42812e+06 
191 -0.06095 8.83385e-05 369.394 273.065 5.02327 5.02378 0.207638 0.159172 1.42822e+06 
192 -0.06085 8.83254e-05 369.447 273.051 5.02227 5.02198 0.0945469 -0.0283721 1.42777e+06 
204 -0.05965 8.83267e-05 369.434 273.05 5.02231 5.02235 0.187474 -0.133712 1.42773e+06 
205 -0.05955 8.83328e-05 369.413 273.069 5.02301 5.0231 0.101261 -0.027929 1.42801e+06 
206 -0.05945 8.83286e-05 369.43 273.08 5.02298 5.02263 -0.0755692 -0.0690063 1.42804e+06 
207 -0.05935 8.83164e-05 369.48 273.059 5.02189 5.02099 -0.0912144 -0.137236 1.42758e+06 
208 -0.05925 8.83089e-05 369.513 273.065 5.02158 5.0199 -0.31359 -0.110357 1.42742e+06 
209 -0.05915 8.83121e-05 369.498 273.063 5.02173 5.02028 -0.265679 -0.0615973 1.4275e+06 
210 -0.05905 8.83161e-05 369.48 273.055 5.0218 5.02088 -0.0640032 0.00548458 1.42755e+06 
211 -0.05895 8.83202e-05 369.464 273.064 5.02221 5.02139 -0.125787 0.0340969 1.42775e+06 
212 -0.05885 8.83305e-05 369.418 273.089 5.02325 5.02281 -0.148326 0.177421 1.4282e+06 
213 -0.05875 8.83234e-05 369.449 273.08 5.02268 5.0219 -0.159249 0.0532274 1.42793e+06 
214 -0.05865 8.83241e-05 369.445 273.077 5.02267 5.02206 -0.10985 0.0234872 1.42798e+06 
215 -0.05855 8.83242e-05 369.445 273.069 5.02252 5.02206 -0.0514741 0.00303644 1.42792e+06 
216 -0.05845 8.83261e-05 369.437 273.079 5.02281 5.0222 -0.0829374 0.112147 1.42801e+06 
217 -0.05835 8.83358e-05 369.4 273.091 5.02358 5.02348 -0.0119842 0.170691 1.42828e+06 
218 -0.05825 8.83391e-05 369.385 273.11 5.02412 5.02392 -0.158445 0.226353 1.42854e+06 
219 -0.05815 8.83274e-05 369.434 273.093 5.02314 5.02237 -0.230162 0.139343 1.42812e+06 
220 -0.05805 8.83212e-05 369.458 273.062 5.02223 5.02153 -0.00763813 0.0185989 1.42771e+06 
221 -0.05795 8.83327e-05 369.41 273.078 5.02318 5.02317 0.00755252 0.0753359 1.42818e+06 
222 -0.05785 8.83416e-05 369.372 273.113 5.02432 5.02442 -0.122186 0.155517 1.42863e+06 
223 -0.05775 8.83476e-05 369.348 273.121 5.0248 5.02518 -0.0826257 0.220338 1.42878e+06 
224 -0.05765 8.83407e-05 369.378 273.106 5.02415 5.0242 -0.0935425 0.121076 1.42851e+06 
225 -0.05755 8.83406e-05 369.376 273.105 5.02411 5.02436 -0.0779197 0.185111 1.42858e+06 
226 -0.05745 8.8333e-05 369.406 273.093 5.02346 5.02327 -0.0973754 0.20511 1.42824e+06 
227 -0.05735 8.8339e-05 369.38 273.111 5.02414 5.02425 -0.129643 0.225871 1.42858e+06 
228 -0.05725 8.83374e-05 369.385 273.114 5.02411 5.02387 -0.19544 0.22901 1.42853e+06 
229 -0.05715 8.83415e-05 369.369 273.104 5.02415 5.02457 -0.0108961 0.213367 1.42856e+06 
230 -0.05705 8.83276e-05 369.425 273.091 5.02312 5.02275 -0.144424 0.0276973 1.42815e+06 
231 -0.05695 8.83242e-05 369.439 273.097 5.02304 5.02225 -0.301627 -0.0528148 1.42811e+06 
232 -0.05685 8.83202e-05 369.454 273.092 5.02272 5.02186 -0.321114 -0.0839739 1.42797e+06 
233 -0.05675 8.83234e-05 369.439 273.092 5.0229 5.02227 -0.215045 0.0200304 1.428e+06 
234 -0.05665 8.83279e-05 369.414 273.113 5.02354 5.02301 -0.366219 0.0782287 1.42833e+06 
235 -0.05655 8.8313e-05 369.479 273.067 5.02184 5.02103 -0.223071 -0.194073 1.4277e+06 
236 -0.05645 8.83197e-05 369.446 273.069 5.02226 5.02209 -0.0678177 -0.141069 1.42786e+06 
237 -0.05635 8.83131e-05 369.476 273.047 5.02149 5.02104 0.0159381 -0.0687355 1.42751e+06 
238 -0.05625 8.83217e-05 369.441 273.046 5.02197 5.02205 0.155199 0.0621771 1.42764e+06 
239 -0.05615 8.83132e-05 369.479 273.025 5.02109 5.02089 0.195408 -0.0440623 1.42725e+06 
240 -0.05605 8.82992e-05 369.537 273.005 5.01993 5.01902 0.142974 -0.176287 1.42677e+06 
241 -0.05595 8.8315e-05 369.468 273.017 5.02104 5.02125 0.335531 0.027369 1.42727e+06 
242 -0.05585 8.83263e-05 369.424 273.038 5.02207 5.02274 0.372624 0.14692 1.42771e+06 
243 -0.05575 8.83115e-05 369.483 273.032 5.02112 5.02081 0.141083 -0.0123131 1.4273e+06 
244 -0.05565 8.83086e-05 369.494 273.035 5.02101 5.02039 0.0266048 -0.0153281 1.42721e+06 
257 -0.05435 8.83339e-05 369.395 273.079 5.02326 5.02378 0.0661635 0.27978 1.42826e+06 
258 -0.05425 8.83227e-05 369.443 273.055 5.02219 5.02223 0.0483907 0.145856 1.42785e+06 
259 -0.05415 8.83283e-05 369.42 273.066 5.0227 5.02282 0.0757977 0.289287 1.42801e+06 
260 -0.05405 8.83212e-05 369.447 273.072 5.02241 5.02199 -0.0808582 0.20675 1.42791e+06 
261 -0.05395 8.83181e-05 369.459 273.083 5.02243 5.02152 -0.222982 0.193639 1.42792e+06 
262 -0.05385 8.83208e-05 369.447 273.076 5.02246 5.02198 -0.132613 0.0699704 1.428e+06 
263 -0.05375 8.8329e-05 369.413 273.093 5.02324 5.02318 -0.151742 0.0968432 1.42837e+06 
264 -0.05365 8.83334e-05 369.394 273.101 5.02363 5.02376 -0.113954 0.139963 1.42848e+06 
245 -0.05555 8.83028e-05 369.519 273.031 5.02061 5.01958 -0.0384086 -0.141942 1.42711e+06 
246 -0.05545 8.8312e-05 369.48 273.035 5.02121 5.0209 0.13072 -0.0935551 1.42734e+06 
247 -0.05535 8.83041e-05 369.514 273.037 5.0208 5.01988 -0.0293081 -0.143682 1.42719e+06 
248 -0.05525 8.8294e-05 369.555 273.005 5.01962 5.01842 0.0317818 -0.202933 1.42673e+06 
249 -0.05515 8.83067e-05 369.506 273.021 5.02064 5.02022 0.175877 -0.0336226 1.42717e+06 
250 -0.05505 8.83086e-05 369.495 273.007 5.02049 5.02037 0.326724 0.0325787 1.42714e+06 
251 -0.05495 8.83151e-05 369.467 273.044 5.02155 5.02133 0.0750958 0.0180445 1.42755e+06 
252 -0.05485 8.83169e-05 369.465 273.054 5.02183 5.02151 -0.0179671 0.00616643 1.42767e+06 
253 -0.05475 8.8317e-05 369.464 273.047 5.02171 5.02148 0.0909506 0.0712808 1.42758e+06 
254 -0.05465 8.83183e-05 369.456 273.083 5.02244 5.02173 -0.24817 0.047201 1.42787e+06 
255 -0.05455 8.83206e-05 369.448 273.056 5.02209 5.02194 0.0112415 0.134801 1.42776e+06 
256 -0.05445 8.83191e-05 369.455 273.066 5.02217 5.02177 -0.07707 0.0791232 1.42777e+06 
270 -0.05305 8.83239e-05 369.424 273.076 5.02264 5.02269 -0.040509 -0.190125 1.42816e+06 
265 -0.05355 8.83312e-05 369.4 273.092 5.02335 5.02363 -0.0691861 -0.0535426 1.42845e+06 
266 -0.05345 8.83251e-05 369.426 273.062 5.02244 5.02265 0.0775739 -0.125046 1.42799e+06 
267 -0.05335 8.83259e-05 369.42 273.086 5.02293 5.02287 -0.137731 -0.109774 1.42825e+06 
268 -0.05325 8.83258e-05 369.421 273.069 5.02261 5.02283 0.0710926 -0.0753686 1.42809e+06 
269 -0.05315 8.83242e-05 369.427 273.072 5.02258 5.02275 0.0176188 -0.21083 1.42812e+06 
271 -0.05295 8.83254e-05 369.419 273.095 5.02307 5.02294 -0.189504 -0.174168 1.42839e+06 
272 -0.05285 8.83278e-05 369.411 273.113 5.02354 5.02314 -0.357171 -0.130374 1.42857e+06 
273 -0.05275 8.83356e-05 369.378 273.108 5.02389 5.02413 -0.12924 0.00132455 1.42871e+06 
274 -0.05265 8.83302e-05 369.401 273.11 5.02362 5.02349 -0.259704 -0.102259 1.4286e+06 
275 -0.05255 8.83293e-05 369.405 273.094 5.02327 5.02328 -0.121128 -0.108632 1.42841e+06 
276 -0.05245 8.83321e-05 369.396 273.085 5.02325 5.02373 -0.000728592 -0.13788 1.42842e+06 
277 -0.05235 8.83195e-05 369.452 273.059 5.02207 5.02205 -0.0101288 -0.200087 1.42793e+06 
278 -0.05225 8.83083e-05 369.495 273.049 5.02125 5.02037 -0.130444 -0.243216 1.42751e+06 
279 -0.05215 8.83118e-05 369.482 273.035 5.0212 5.02093 0.0869472 -0.186161 1.42755e+06 
280 -0.05205 8.83076e-05 369.498 273.04 5.02104 5.02015 -0.0557793 -0.105214 1.42742e+06 
281 -0.05195 8.83111e-05 369.484 273.043 5.02129 5.02068 -0.0126881 -0.101367 1.42759e+06 
282 -0.05185 8.83122e-05 369.483 273.038 5.02128 5.02083 0.0385795 -0.0776527 1.42759e+06 
283 -0.05175 8.83128e-05 369.481 273.033 5.02121 5.02083 0.112878 0.0217773 1.42754e+06 
284 -0.05165 8.83149e-05 369.473 273.039 5.02144 5.02109 0.101037 0.0513007 1.42763e+06 
285 -0.05155 8.83117e-05 369.486 273.037 5.02123 5.02056 0.0491735 -0.0243028 1.42754e+06 
286 -0.05145 8.83136e-05 369.478 273.059 5.02173 5.02098 -0.0796863 -0.0213091 1.4278e+06 
287 -0.05135 8.83116e-05 369.485 273.032 5.02113 5.02059 0.107854 0.0355549 1.42754e+06 
288 -0.05125 8.83198e-05 369.451 273.038 5.0217 5.02178 0.217598 0.111102 1.4278e+06 
289 -0.05115 8.83081e-05 369.502 273.024 5.02078 5.01997 0.0959624 -0.00120985 1.42728e+06 
290 -0.05105 8.83152e-05 369.467 273.052 5.02169 5.02111 -0.0253012 0.088196 1.42771e+06 
291 -0.05095 8.83166e-05 369.466 273.062 5.02196 5.02118 -0.108109 0.0828642 1.42772e+06 
292 -0.05085 8.83261e-05 369.422 273.071 5.02266 5.02253 0.00577046 0.210325 1.428e+06 
293 -0.05075 8.83266e-05 369.422 273.064 5.02257 5.02263 0.118419 0.23403 1.4279e+06 
294 -0.05065 8.83243e-05 369.43 273.075 5.02263 5.02241 -0.0290553 0.11615 1.42797e+06 
295 -0.05055 8.83145e-05 369.472 273.063 5.02186 5.02097 -0.121937 -0.0326874 1.42762e+06 
296 -0.05045 8.83172e-05 369.462 273.073 5.02219 5.02147 -0.149647 -0.061561 1.42782e+06 
297 -0.05035 8.83244e-05 369.434 273.088 5.02289 5.0222 -0.206409 0.0555045 1.42806e+06 
298 -0.05025 8.83181e-05 369.461 273.076 5.02231 5.02156 -0.19453 -0.0784967 1.42786e+06 
299 -0.05015 8.83176e-05 369.466 273.056 5.02191 5.02131 -0.0129278 -0.00784887 1.4276e+06 
300 -0.05005 8.83158e-05 369.475 273.06 5.02187 5.02102 -0.0940767 -0.0641268 1.42754e+06 
301 -0.04995 8.83198e-05 369.457 273.068 5.02226 5.02156 -0.0953796 0.00366372 1.42771e+06 
302 -0.04985 8.83117e-05 369.493 273.022 5.02095 5.02052 0.202074 -0.0901317 1.42723e+06 
303 -0.04975 8.83132e-05 369.485 273.018 5.02096 5.02062 0.279386 0.0687424 1.42714e+06 
304 -0.04965 8.83174e-05 369.471 273.034 5.02149 5.02125 0.210732 0.0917435 1.42742e+06 
305 -0.04955 8.83252e-05 369.437 273.07 5.02259 5.02214 -0.0189869 0.241895 1.42788e+06 
321 -0.04795 8.83393e-05 369.379 273.06 5.02322 5.02393 0.393812 0.335102 1.42817e+06 
322 -0.04785 8.83454e-05 369.357 273.108 5.02444 5.02472 0.0521975 0.366328 1.42867e+06 
323 -0.04775 8.83496e-05 369.334 273.098 5.02451 5.0253 0.233978 0.403184 1.42872e+06 
324 -0.04765 8.8346e-05 369.351 273.104 5.02441 5.02491 0.101342 0.340852 1.42872e+06 
325 -0.04755 8.83453e-05 369.355 273.091 5.02412 5.02473 0.190999 0.278545 1.42858e+06 
306 -0.04945 8.83133e-05 369.49 273.035 5.02127 5.02045 0.098978 0.0434616 1.42727e+06 
307 -0.04935 8.83222e-05 369.451 273.048 5.02202 5.02181 0.186954 0.160947 1.42761e+06 
308 -0.04925 8.8324e-05 369.444 273.033 5.02185 5.02192 0.33739 0.275488 1.42757e+06 
309 -0.04915 8.83278e-05 369.426 273.035 5.02211 5.02238 0.368426 0.226792 1.42768e+06 
310 -0.04905 8.83308e-05 369.414 273.056 5.02266 5.02292 0.268703 0.26933 1.42795e+06 
311 -0.04895 8.83178e-05 369.468 273.029 5.02141 5.02106 0.283568 0.162637 1.42736e+06 
312 -0.04885 8.83197e-05 369.462 273.063 5.02215 5.02136 -0.0418214 0.150619 1.4277e+06 
313 -0.04875 8.83207e-05 369.458 273.03 5.02161 5.02146 0.295419 0.159833 1.42749e+06 
314 -0.04865 8.83262e-05 369.436 273.05 5.02229 5.02217 0.220895 0.222763 1.42776e+06 
315 -0.04855 8.83282e-05 369.429 273.041 5.02223 5.02247 0.364465 0.178475 1.42772e+06 
316 -0.04845 8.83286e-05 369.427 273.042 5.02228 5.02244 0.371701 0.25154 1.42776e+06 
317 -0.04835 8.83194e-05 369.462 273.057 5.02203 5.02123 0.0540916 0.152465 1.42763e+06 
318 -0.04825 8.83324e-05 369.41 273.057 5.02277 5.0229 0.316253 0.369916 1.42793e+06 
319 -0.04815 8.83379e-05 369.385 273.081 5.02353 5.02374 0.156933 0.406924 1.42829e+06 
320 -0.04805 8.83333e-05 369.405 273.06 5.02287 5.02311 0.285728 0.319404 1.42798e+06 
337 -0.04635 8.83095e-05 369.497 273.016 5.02071 5.02019 0.282838 -0.0314114 1.42724e+06 
326 -0.04745 8.83467e-05 369.349 273.084 5.02408 5.02492 0.290818 0.384596 1.42861e+06 
327 -0.04735 8.83338e-05 369.404 273.065 5.023 5.02314 0.20331 0.25151 1.42811e+06 
328 -0.04725 8.83248e-05 369.44 273.037 5.02198 5.02207 0.317009 0.11273 1.42771e+06 
329 -0.04715 8.83338e-05 369.403 273.055 5.02281 5.02323 0.320534 0.236759 1.42805e+06 
330 -0.04705 8.83383e-05 369.384 273.07 5.02334 5.02374 0.241026 0.345548 1.42821e+06 
331 -0.04695 8.83371e-05 369.39 273.062 5.02313 5.02353 0.337676 0.350568 1.42812e+06 
332 -0.04685 8.83239e-05 369.445 273.056 5.02227 5.02179 0.132531 0.193921 1.42778e+06 
333 -0.04675 8.83264e-05 369.434 273.047 5.02225 5.02221 0.284708 0.187523 1.42782e+06 
334 -0.04665 8.83215e-05 369.449 273.039 5.02182 5.02171 0.239988 0.128971 1.42769e+06 
335 -0.04655 8.83267e-05 369.428 273.057 5.02244 5.02251 0.168949 0.221231 1.42801e+06 