TITLE = "DSMC"
VARIABLES = "ID" "X" "rho" "v1" "Ttrans" "p" "p1" "q1" "mv1v1v1" "mvvv1v1"
ZONE T="Ma=8.0", I=800, J=1, K=1, F=POINT
1 -0.04995 8.83411e-05 2462.55 273.104 5.02413 5.02294 -0.548334 -0.92315 1430200.0
2 -0.04985 8.8341e-05 2462.55 273.103 5.0241 5.02294 -0.549726 -0.871433 1430190.0
3 -0.04975 8.8342e-05 2462.55 273.103 5.02415 5.02299 -0.616768 -0.997091 1430690.0
4 -0.04965 8.83414e-05 2462.55 273.104 5.02414 5.02296 -0.6133 -0.964754 1430590.0
5 -0.04955 8.83417e-05 2462.55 273.107 5.02421 5.02306 -0.650665 -1.04288 1430860.0
6 -0.04945 8.83406e-05 2462.55 273.105 5.02412 5.02294 -0.677661 -1.0367 1430990.0
7 -0.04935 8.83411e-05 2462.55 273.105 5.02414 5.023 -0.751935 -1.14114 1431370.0
8 -0.04925 8.83418e-05 2462.55 273.106 5.02421 5.02307 -0.725641 -1.1318 1431330.0
9 -0.04915 8.83407e-05 2462.56 273.106 5.02414 5.02299 -0.768455 -1.16847 1431620.0
10 -0.04905 8.83414e-05 2462.55 273.109 5.02423 5.02305 -0.824755 -1.25228 1431910.0
11 -0.04895 8.83416e-05 2462.55 273.107 5.02422 5.02311 -0.851958 -1.3326 1432110.0
12 -0.04885 8.8342e-05 2462.55 273.107 5.02424 5.02321 -0.877083 -1.3628 1432270.0
13 -0.04875 8.8341e-05 2462.55 273.109 5.02422 5.02321 -0.874463 -1.38874 1432450.0
14 -0.04865 8.8341e-05 2462.55 273.108 5.02419 5.02321 -0.925578 -1.44262 1432620.0
15 -0.04855 8.8341e-05 2462.55 273.111 5.02424 5.02333 -0.989273 -1.53074 1433100.0
16 -0.04845 8.83417e-05 2462.55 273.109 5.02425 5.02335 -0.965025 -1.50599 1432920.0
17 -0.04835 8.83419e-05 2462.55 273.109 5.02426 5.02342 -0.982375 -1.52682 1433210.0
18 -0.04825 8.83414e-05 2462.55 273.113 5.02431 5.0235 -1.03445 -1.64289 1433370.0
19 -0.04815 8.83413e-05 2462.55 273.109 5.02424 5.02346 -0.94735 -1.51465 1432970.0
20 -0.04805 8.834e-05 2462.55 273.108 5.02413 5.02335 -0.963462 -1.59158 1433160.0
21 -0.04795 8.83416e-05 2462.55 273.111 5.02429 5.02349 -0.9629 -1.52744 1433260.0
22 -0.04785 8.83421e-05 2462.55 273.109 5.02427 5.02346 -0.964737 -1.6066 1433390.0
23 -0.04775 8.83418e-05 2462.55 273.11 5.02428 5.02354 -0.972987 -1.57449 1433420.0
24 -0.04765 8.83418e-05 2462.55 273.11 5.02429 5.02356 -1.0897 -1.75991 1434100.0
25 -0.04755 8.83413e-05 2462.55 273.11 5.02425 5.02352 -1.04292 -1.697 1433910.0
26 -0.04745 8.83412e-05 2462.55 273.11 5.02425 5.02355 -1.09321 -1.79441 1434290.0
27 -0.04735 8.83413e-05 2462.55 273.114 5.02432 5.02357 -1.11205 -1.77133 1434530.0
28 -0.04725 8.83412e-05 2462.55 273.11 5.02425 5.02355 -1.12446 -1.8314 1434450.0
29 -0.04715 8.83414e-05 2462.55 273.112 5.02429 5.02362 -1.12576 -1.82586 1434730.0
30 -0.04705 8.83409e-05 2462.55 273.111 5.02424 5.02354 -1.16066 -1.88501 1434740.0
31 -0.04695 8.83421e-05 2462.55 273.114 5.02437 5.02371 -1.21958 -1.94677 1435380.0
32 -0.04685 8.83417e-05 2462.55 273.113 5.02432 5.02372 -1.2119 -1.94947 1435230.0
33 -0.04675 8.83413e-05 2462.55 273.113 5.0243 5.0237 -1.2729 -2.08009 1435710.0
34 -0.04665 8.83415e-05 2462.55 273.116 5.02438 5.02376 -1.30724 -2.14053 1436100.0
35 -0.04655 8.83417e-05 2462.55 273.114 5.02435 5.0238 -1.29495 -2.12305 1435990.0
36 -0.04645 8.83415e-05 2462.55 273.117 5.02438 5.02382 -1.3664 -2.14436 1436320.0
37 -0.04635 8.83412e-05 2462.55 273.116 5.02435 5.02381 -1.36977 -2.16582 1436500.0
38 -0.04625 8.8342e-05 2462.55 273.116 5.02439 5.02386 -1.49067 -2.36632 1437220.0
39 -0.04615 8.83425e-05 2462.55 273.12 5.02451 5.02411 -1.49857 -2.35353 1437530.0
40 -0.04605 8.83408e-05 2462.55 273.118 5.02436 5.02394 -1.52877 -2.38897 1437560.0
41 -0.04595 8.83415e-05 2462.54 273.118 5.02441 5.02399 -1.5659 -2.39395 1437920.0
42 -0.04585 8.83408e-05 2462.55 273.121 5.02442 5.02405 -1.68066 -2.61349 1438450.0
43 -0.04575 8.83413e-05 2462.55 273.121 5.02446 5.02408 -1.64466 -2.54123 1438520.0
44 -0.04565 8.83418e-05 2462.55 273.122 5.02449 5.02408 -1.79951 -2.71817 1439260.0
45 -0.04555 8.83417e-05 2462.55 273.123 5.02452 5.02427 -1.90327 -2.8562 1440010.0
46 -0.04545 8.83413e-05 2462.55 273.124 5.0245 5.02414 -1.93797 -2.89735 1440140.0
47 -0.04535 8.83425e-05 2462.55 273.124 5.02458 5.02426 -1.84789 -2.80353 1439890.0
48 -0.04525 8.8341e-05 2462.55 273.125 5.0245 5.02414 -1.9332 -2.93347 1440290.0
49 -0.04515 8.83411e-05 2462.55 273.124 5.02449 5.02417 -1.92878 -2.96178 1440300.0
50 -0.04505 8.83418e-05 2462.55 273.128 5.02461 5.02428 -1.9987 -3.04966 1440900.0
51 -0.04495 8.83422e-05 2462.55 273.127 5.02461 5.02433 -2.08869 -3.23449 1441450.0
52 -0.04485 8.8341e-05 2462.55 273.129 5.02459 5.02425 -2.23189 -3.37474 1442040.0
53 -0.04475 8.83413e-05 2462.55 273.129 5.02459 5.02429 -2.157 -3.3205 1442080.0
54 -0.04465 8.8342e-05 2462.55 273.128 5.02461 5.02437 -2.17741 -3.32722 1442190.0
55 -0.04455 8.83418e-05 2462.55 273.13 5.02464 5.02434 -2.23028 -3.44053 1442600.0
56 -0.04445 8.8341e-05 2462.55 273.129 5.02459 5.02429 -2.25656 -3.48143 1442830.0
57 -0.04435 8.83421e-05 2462.54 273.131 5.02469 5.02441 -2.23054 -3.46687 1442840.0
58 -0.04425 8.83409e-05 2462.55 273.131 5.0246 5.02434 -2.30942 -3.54349 1443330.0
59 -0.04415 8.83417e-05 2462.55 273.128 5.02461 5.02434 -2.29942 -3.5777 1443260.0
60 -0.04405 8.83418e-05 2462.54 273.134 5.02472 5.02452 -2.43805 -3.67626 1444270.0
61 -0.04395 8.83412e-05 2462.55 273.131 5.02464 5.02443 -2.42908 -3.74163 1444100.0
62 -0.04385 8.83418e-05 2462.54 273.136 5.02475 5.02458 -2.53862 -3.84393 1445000.0
63 -0.04375 8.83415e-05 2462.54 273.133 5.02468 5.02441 -2.60181 -3.93994 1445300.0
64 -0.04365 8.83416e-05 2462.55 273.135 5.02472 5.02453 -2.57028 -3.90988 1445480.0
65 -0.04355 8.83423e-05 2462.55 273.137 5.02481 5.02463 -2.69482 -4.1148 1446170.0
66 -0.04345 8.83411e-05 2462.54 273.135 5.02471 5.02448 -2.7797 -4.25688 1446730.0
67 -0.04335 8.83411e-05 2462.54 273.139 5.02477 5.02464 -2.77838 -4.18222 1446700.0
68 -0.04325 8.83419e-05 2462.54 273.136 5.02477 5.02463 -2.76276 -4.21612 1446610.0
69 -0.04315 8.83416e-05 2462.55 273.14 5.02483 5.02476 -2.89973 -4.40992 1447760.0
70 -0.04305 8.83415e-05 2462.54 273.139 5.0248 5.02468 -2.92964 -4.42955 1447840.0
71 -0.04295 8.83415e-05 2462.54 273.141 5.02482 5.02475 -2.99415 -4.47554 1448120.0
72 -0.04285 8.83417e-05 2462.54 273.144 5.0249 5.02483 -3.18449 -4.73995 1449540.0
73 -0.04275 8.83415e-05 2462.54 273.146 5.02492 5.02491 -3.4721 -5.05987 1451080.0
74 -0.04265 8.83423e-05 2462.55 273.148 5.025 5.02497 -3.44836 -5.04957 1451120.0
75 -0.04255 8.8342e-05 2462.54 273.149 5.02501 5.02499 -3.54713 -5.26375 1451900.0
76 -0.04245 8.83417e-05 2462.54 273.147 5.02495 5.02495 -3.45022 -5.19198 1451390.0
77 -0.04235 8.83417e-05 2462.54 273.148 5.02498 5.02494 -3.51824 -5.32195 1452260.0
78 -0.04225 8.8341e-05 2462.55 273.148 5.02493 5.02494 -3.49051 -5.32606 1452090.0
79 -0.04215 8.83416e-05 2462.54 273.149 5.02499 5.02502 -3.63169 -5.59519 1453230.0
80 -0.04205 8.83418e-05 2462.54 273.151 5.02503 5.02503 -3.71448 -5.6742 1453510.0
81 -0.04195 8.83409e-05 2462.54 273.156 5.02507 5.02509 -3.87347 -5.8505 1454670.0
82 -0.04185 8.83417e-05 2462.54 273.157 5.02513 5.02522 -4.20421 -6.2362 1456600.0
83 -0.04175 8.83425e-05 2462.54 273.157 5.02518 5.02538 -4.07782 -6.13622 1456210.0
84 -0.04165 8.83415e-05 2462.54 273.159 5.02515 5.02529 -4.25432 -6.34436 1457170.0
85 -0.04155 8.83413e-05 2462.54 273.161 5.02518 5.02531 -4.2864 -6.35453 1457650.0
86 -0.04145 8.83417e-05 2462.54 273.159 5.02518 5.02531 -4.33368 -6.41861 1458140.0
87 -0.04135 8.83419e-05 2462.54 273.158 5.02516 5.02528 -4.26247 -6.38672 1457690.0
88 -0.04125 8.83409e-05 2462.54 273.162 5.02518 5.02533 -4.44438 -6.65314 1459130.0
89 -0.04115 8.83423e-05 2462.54 273.165 5.02532 5.02547 -4.58977 -6.86023 1460150.0
90 -0.04105 8.83417e-05 2462.54 273.163 5.02526 5.02545 -4.6902 -6.98115 1460790.0
91 -0.04095 8.83417e-05 2462.54 273.168 5.02534 5.02555 -4.77454 -7.14784 1461470.0
92 -0.04085 8.83414e-05 2462.54 273.169 5.02534 5.02555 -4.90758 -7.33858 1462490.0
93 -0.04075 8.83419e-05 2462.54 273.17 5.02538 5.02566 -4.92187 -7.39587 1462890.0
94 -0.04065 8.83415e-05 2462.54 273.172 5.0254 5.02575 -5.05955 -7.61073 1463890.0
95 -0.04055 8.83414e-05 2462.54 273.173 5.02541 5.02571 -5.25666 -7.86126 1464800.0
96 -0.04045 8.83413e-05 2462.54 273.176 5.02547 5.02587 -5.39854 -8.09963 1466130.0
97 -0.04035 8.83424e-05 2462.54 273.177 5.02554 5.02599 -5.45139 -8.1956 1466680.0
98 -0.04025 8.8342e-05 2462.54 273.178 5.02554 5.02595 -5.65686 -8.52602 1468110.0
99 -0.04015 8.83415e-05 2462.54 273.18 5.02554 5.02593 -5.70093 -8.47657 1468170.0
100 -0.04005 8.8342e-05 2462.54 273.182 5.02561 5.02605 -5.72396 -8.65642 1469140.0
101 -0.03995 8.8342e-05 2462.54 273.184 5.02566 5.02612 -6.01182 -8.98458 1470700.0
102 -0.03985 8.83418e-05 2462.54 273.185 5.02565 5.02614 -5.98262 -8.94576 1470710.0
103 -0.03975 8.83415e-05 2462.54 273.183 5.0256 5.02608 -6.07931 -9.15692 1471710.0
104 -0.03965 8.83418e-05 2462.54 273.189 5.02572 5.02626 -6.22576 -9.38732 1472610.0
105 -0.03955 8.83418e-05 2462.54 273.191 5.02576 5.0263 -6.45005 -9.63299 1474190.0
106 -0.03945 8.83425e-05 2462.54 273.192 5.02582 5.0264 -6.42233 -9.65518 1474390.0
107 -0.03935 8.83406e-05 2462.54 273.192 5.02571 5.02632 -6.674 -10.0475 1475850.0
108 -0.03925 8.8342e-05 2462.54 273.198 5.02591 5.02666 -6.87297 -10.3676 1477320.0
109 -0.03915 8.83419e-05 2462.54 273.203 5.026 5.02683 -7.19556 -10.7772 1479790.0
110 -0.03905 8.83424e-05 2462.54 273.203 5.02602 5.02681 -7.23191 -10.8645 1479480.0
111 -0.03895 8.83417e-05 2462.53 273.208 5.02608 5.02697 -7.6201 -11.427 1482770.0
112 -0.03885 8.83422e-05 2462.53 273.206 5.02607 5.02697 -7.57552 -11.3705 1482430.0
113 -0.03875 8.8342e-05 2462.54 273.213 5.02618 5.02722 -7.91702 -11.8181 1485020.0
114 -0.03865 8.83419e-05 2462.53 273.214 5.02619 5.02716 -7.91688 -11.8612 1485210.0
115 -0.03855 8.83417e-05 2462.53 273.216 5.02622 5.02718 -8.17521 -12.1853 1486890.0
116 -0.03845 8.83422e-05 2462.53 273.222 5.02636 5.02747 -8.52855 -12.6682 1489560.0
117 -0.03835 8.83407e-05 2462.53 273.222 5.02627 5.02726 -8.49989 -12.7498 1489660.0
118 -0.03825 8.83431e-05 2462.53 273.225 5.02646 5.02763 -8.8292 -13.2304 1492040.0
119 -0.03815 8.83419e-05 2462.53 273.227 5.02643 5.02761 -8.86278 -13.3119 1492290.0
120 -0.03805 8.83418e-05 2462.53 273.231 5.0265 5.0277 -9.16765 -13.697 1494670.0
121 -0.03795 8.8342e-05 2462.53 273.233 5.02656 5.02784 -9.40297 -14.1087 1496120.0
122 -0.03785 8.83415e-05 2462.53 273.237 5.0266 5.02796 -9.64823 -14.4765 1497920.0
123 -0.03775 8.8342e-05 2462.53 273.245 5.02678 5.02817 -10.1294 -15.1382 1501260.0
124 -0.03765 8.83427e-05 2462.53 273.25 5.0269 5.02831 -10.4523 -15.4001 1502790.0
125 -0.03755 8.83419e-05 2462.53 273.25 5.02687 5.02832 -10.4453 -15.5513 1503920.0
126 -0.03745 8.83421e-05 2462.53 273.258 5.02702 5.02856 -11.1093 -16.3422 1507940.0
127 -0.03735 8.8342e-05 2462.53 273.257 5.02699 5.02852 -11.1009 -16.4613 1508250.0
128 -0.03725 8.83426e-05 2462.53 273.267 5.02721 5.02881 -11.3978 -16.9262 1510630.0
129 -0.03715 8.83425e-05 2462.53 273.262 5.02712 5.02879 -11.3652 -16.9657 1511220.0
130 -0.03705 8.83418e-05 2462.53 273.265 5.02713 5.02884 -11.6432 -17.3715 1512980.0
131 -0.03695 8.83421e-05 2462.52 273.275 5.02733 5.02916 -12.0599 -17.9921 1515790.0
132 -0.03685 8.83424e-05 2462.53 273.279 5.02742 5.02922 -12.4029 -18.4614 1518050.0
133 -0.03675 8.83425e-05 2462.53 273.278 5.02741 5.02941 -12.5152 -18.7809 1519510.0
134 -0.03665 8.83419e-05 2462.52 273.287 5.02754 5.02949 -12.8894 -19.2465 1521920.0
135 -0.03655 8.83422e-05 2462.52 273.289 5.0276 5.02964 -13.1639 -19.6974 1523960.0
136 -0.03645 8.83429e-05 2462.52 273.295 5.02774 5.02987 -13.5815 -20.2418 1526780.0
137 -0.03635 8.83422e-05 2462.52 273.302 5.02783 5.03008 -14.0621 -20.9866 1530330.0
138 -0.03625 8.8342e-05 2462.52 273.308 5.02793 5.03021 -14.3848 -21.4328 1533010.0
139 -0.03615 8.83428e-05 2462.52 273.314 5.02808 5.03048 -14.7428 -21.8935 1535130.0
140 -0.03605 8.83425e-05 2462.52 273.319 5.02815 5.03061 -15.1284 -22.4662 1537650.0
141 -0.03595 8.8343e-05 2462.52 273.325 5.0283 5.03088 -15.4867 -23.1271 1540560.0
142 -0.03585 8.8343e-05 2462.52 273.329 5.02838 5.03094 -15.9033 -23.636 1543600.0
143 -0.03575 8.83426e-05 2462.52 273.342 5.02858 5.03128 -16.5144 -24.3717 1547620.0
144 -0.03565 8.83421e-05 2462.51 273.34 5.02852 5.03133 -16.6346 -24.8324 1549530.0
145 -0.03555 8.83422e-05 2462.51 273.347 5.02866 5.03152 -17.0374 -25.4654 1552310.0
146 -0.03545 8.83431e-05 2462.51 273.355 5.02886 5.03178 -17.5117 -25.9319 1555220.0
147 -0.03535 8.8343e-05 2462.51 273.369 5.02911 5.03214 -18.4522 -27.2584 1561520.0
148 -0.03525 8.8343e-05 2462.51 273.381 5.02933 5.03259 -19.2859 -28.3591 1567140.0
149 -0.03515 8.83435e-05 2462.51 273.388 5.02949 5.03284 -19.6834 -28.9838 1569680.0
150 -0.03505 8.83425e-05 2462.51 273.391 5.02948 5.03285 -20.0277 -29.5203 1573320.0
151 -0.03495 8.83437e-05 2462.51 273.4 5.02973 5.03331 -20.679 -30.5365 1577290.0
152 -0.03485 8.83429e-05 2462.5 273.412 5.02989 5.03361 -21.4399 -31.5329 1582920.0
153 -0.03475 8.83434e-05 2462.5 273.422 5.0301 5.03394 -21.902 -32.3301 1586480.0
154 -0.03465 8.83429e-05 2462.5 273.426 5.03016 5.03404 -22.4065 -33.0932 1590210.0
155 -0.03455 8.83434e-05 2462.5 273.437 5.03039 5.03444 -22.9392 -33.8778 1594000.0
156 -0.03445 8.83431e-05 2462.5 273.44 5.03043 5.03454 -23.3424 -34.593 1598070.0
157 -0.03435 8.83435e-05 2462.5 273.45 5.03063 5.03486 -23.9793 -35.4852 1602440.0
158 -0.03425 8.83441e-05 2462.5 273.458 5.03081 5.03509 -24.3809 -36.0209 1605120.0
159 -0.03415 8.8343e-05 2462.5 273.47 5.03096 5.0355 -25.4264 -37.5352 1612250.0
160 -0.03405 8.83436e-05 2462.5 273.484 5.03127 5.03588 -26.1715 -38.4606 1617410.0
161 -0.03395 8.83438e-05 2462.49 273.493 5.03144 5.03633 -26.7942 -39.6056 1622120.0
162 -0.03385 8.83435e-05 2462.49 273.5 5.03155 5.03655 -27.348 -40.7088 1626470.0
163 -0.03375 8.8344e-05 2462.49 273.513 5.03182 5.03697 -28.0903 -41.5566 1632000.0
164 -0.03365 8.8344e-05 2462.49 273.525 5.03204 5.03737 -29.0443 -43.0369 1638530.0
165 -0.03355 8.83438e-05 2462.48 273.537 5.03225 5.03768 -29.8461 -44.0707 1643960.0
166 -0.03345 8.83442e-05 2462.49 273.552 5.03254 5.03813 -30.8096 -45.3376 1650780.0
167 -0.03335 8.83439e-05 2462.48 273.566 5.03279 5.03863 -31.7747 -46.8348 1657430.0
168 -0.03325 8.83439e-05 2462.48 273.578 5.03301 5.03902 -32.5099 -47.9636 1662690.0
169 -0.03315 8.83437e-05 2462.48 273.585 5.03312 5.03921 -33.0835 -48.923 1667650.0
170 -0.03305 8.83446e-05 2462.47 273.605 5.03354 5.03994 -34.3608 -50.6619 1677190.0
171 -0.03295 8.83437e-05 2462.47 273.615 5.03367 5.04004 -34.9703 -51.4901 1681680.0
172 -0.03285 8.8344e-05 2462.47 273.631 5.03399 5.04081 -36.1787 -53.3471 1689720.0
173 -0.03275 8.83448e-05 2462.47 273.647 5.03432 5.04128 -37.2444 -55.1351 1697870.0
174 -0.03265 8.83444e-05 2462.47 273.661 5.03456 5.04162 -38.1477 -56.3587 1704230.0
175 -0.03255 8.83446e-05 2462.47 273.682 5.03497 5.04248 -39.7033 -58.6253 1713960.0
176 -0.03245 8.83446e-05 2462.46 273.698 5.03525 5.04293 -40.5957 -60.0311 1721570.0
177 -0.03235 8.83446e-05 2462.46 273.71 5.03548 5.04331 -41.5249 -61.2588 1727770.0
178 -0.03225 8.8345e-05 2462.46 273.735 5.03596 5.04417 -43.2497 -63.6853 1739900.0
179 -0.03215 8.83452e-05 2462.45 273.75 5.03624 5.04458 -44.0127 -64.8838 1746160.0
180 -0.03205 8.83446e-05 2462.45 273.762 5.03643 5.04512 -45.0387 -66.7725 1754080.0
181 -0.03195 8.83448e-05 2462.45 273.771 5.0366 5.04541 -45.559 -67.5215 1758470.0
182 -0.03185 8.8345e-05 2462.45 273.79 5.03697 5.04604 -46.8717 -69.5734 1768750.0
183 -0.03175 8.8345e-05 2462.45 273.805 5.03725 5.04647 -48.0181 -71.3257 1777130.0
184 -0.03165 8.83455e-05 2462.44 273.826 5.03766 5.04722 -49.1964 -73.0644 1786130.0
185 -0.03155 8.8345e-05 2462.44 273.83 5.0377 5.04731 -49.7477 -74.153 1791260.0
186 -0.03145 8.83457e-05 2462.44 273.863 5.03836 5.04837 -51.6996 -76.7233 1804110.0
187 -0.03135 8.83454e-05 2462.44 273.881 5.03866 5.04888 -52.9617 -78.6517 1814170.0
188 -0.03125 8.83453e-05 2462.43 273.891 5.03884 5.04929 -53.6811 -79.8233 1819100.0
189 -0.03115 8.8346e-05 2462.43 273.915 5.03932 5.05012 -55.4437 -82.5626 1832900.0
190 -0.03105 8.83465e-05 2462.43 273.944 5.03989 5.05107 -57.2929 -84.9609 1844320.0
191 -0.03095 8.83461e-05 2462.42 273.975 5.04044 5.052 -59.1895 -87.8778 1857530.0
192 -0.03085 8.83455e-05 2462.41 273.999 5.04085 5.05285 -61.0608 -90.6409 1871030.0
193 -0.03075 8.83458e-05 2462.41 274.027 5.04137 5.05362 -62.7406 -92.8708 1882860.0
194 -0.03065 8.83464e-05 2462.41 274.045 5.04175 5.0543 -64.2354 -95.2022 1894500.0
195 -0.03055 8.83466e-05 2462.4 274.078 5.04236 5.05532 -66.2765 -98.1735 1908270.0
196 -0.03045 8.83469e-05 2462.4 274.11 5.04297 5.05633 -68.412 -101.238 1923740.0
197 -0.03035 8.83471e-05 2462.39 274.135 5.04344 5.05711 -70.2948 -103.82 1936460.0
198 -0.03025 8.83468e-05 2462.39 274.161 5.0439 5.05801 -72.1221 -106.751 1950490.0
199 -0.03015 8.83474e-05 2462.39 274.204 5.04473 5.05947 -74.8098 -110.454 1967730.0
200 -0.03005 8.83474e-05 2462.38 274.23 5.04519 5.06019 -76.4849 -113.324 1981030.0
201 -0.02995 8.83472e-05 2462.38 274.253 5.04562 5.06095 -78.3082 -116.021 1994510.0
202 -0.02985 8.83484e-05 2462.37 274.299 5.04652 5.06247 -81.0339 -119.647 2013570.0
203 -0.02975 8.83474e-05 2462.37 274.326 5.04697 5.06316 -83.0588 -122.614 2028550.0
204 -0.02965 8.83476e-05 2462.36 274.357 5.04755 5.06423 -85.3791 -126.21 2045510.0
205 -0.02955 8.83485e-05 2462.36 274.398 5.04836 5.06567 -87.8136 -129.755 2062310.0
206 -0.02945 8.83485e-05 2462.35 274.417 5.04871 5.06635 -89.3801 -132.489 2076100.0
207 -0.02935 8.83489e-05 2462.35 274.463 5.04958 5.0677 -92.3723 -136.494 2096050.0
208 -0.02925 8.83488e-05 2462.34 274.489 5.05004 5.06849 -94.1885 -139.286 2111110.0
209 -0.02915 8.83497e-05 2462.34 274.533 5.05092 5.07014 -97.1641 -143.899 2131420.0
210 -0.02905 8.83489e-05 2462.33 274.582 5.05175 5.07149 -100.592 -148.455 2156210.0
211 -0.02895 8.83504e-05 2462.32 274.615 5.05246 5.07259 -102.531 -151.321 2169360.0
212 -0.02885 8.83491e-05 2462.32 274.662 5.05324 5.07396 -105.815 -156.156 2193720.0
213 -0.02875 8.83506e-05 2462.31 274.695 5.05394 5.07527 -108.032 -159.789 2210210.0
214 -0.02865 8.83496e-05 2462.31 274.742 5.05475 5.07669 -111.403 -164.845 2235270.0
215 -0.02855 8.83498e-05 2462.3 274.799 5.0558 5.07827 -114.822 -169.117 2257030.0
216 -0.02845 8.83505e-05 2462.29 274.835 5.0565 5.0797 -117.517 -173.816 2279120.0
217 -0.02835 8.83511e-05 2462.29 274.883 5.05742 5.08131 -120.668 -178.383 2300830.0
218 -0.02825 8.83508e-05 2462.28 274.932 5.05832 5.08286 -124.123 -183.682 2327100.0
219 -0.02815 8.83511e-05 2462.27 274.985 5.0593 5.08459 -127.609 -188.726 2351080.0
220 -0.02805 8.83514e-05 2462.26 275.038 5.0603 5.08638 -131.348 -194.39 2378420.0
221 -0.02795 8.83521e-05 2462.26 275.096 5.0614 5.0883 -134.935 -199.522 2401910.0
222 -0.02785 8.83523e-05 2462.25 275.135 5.06214 5.08961 -137.914 -204.549 2427930.0
223 -0.02775 8.83522e-05 2462.24 275.205 5.06342 5.09176 -142.336 -210.638 2455870.0
224 -0.02765 8.83529e-05 2462.23 275.264 5.06454 5.09386 -146.673 -217.474 2489090.0
225 -0.02755 8.83529e-05 2462.22 275.329 5.06574 5.09585 -150.702 -223.07 2515900.0
226 -0.02745 8.83535e-05 2462.21 275.381 5.06673 5.09758 -154.355 -228.605 2543470.0
227 -0.02735 8.83536e-05 2462.2 275.45 5.068 5.09988 -159.203 -236.118 2578650.0
228 -0.02725 8.83543e-05 2462.19 275.514 5.06921 5.10193 -163.151 -241.698 2606990.0
229 -0.02715 8.83548e-05 2462.18 275.584 5.07054 5.10434 -168.218 -249.494 2642810.0
230 -0.02705 8.8355e-05 2462.17 275.674 5.0722 5.10725 -174.015 -257.506 2680190.0
231 -0.02695 8.8355e-05 2462.16 275.733 5.07329 5.10919 -178.145 -263.935 2713600.0
232 -0.02685 8.83553e-05 2462.15 275.816 5.07483 5.11173 -183.739 -271.879 2751190.0
233 -0.02675 8.83561e-05 2462.14 275.888 5.07621 5.11417 -188.633 -279.158 2787700.0
234 -0.02665 8.83566e-05 2462.12 275.957 5.07751 5.11654 -193.348 -286.582 2823260.0
235 -0.02655 8.83573e-05 2462.12 276.031 5.07891 5.11884 -198.33 -293.596 2859160.0
236 -0.02645 8.83571e-05 2462.1 276.121 5.08055 5.12181 -204.342 -302.568 2899750.0
237 -0.02635 8.83577e-05 2462.09 276.207 5.08216 5.12487 -210.088 -311.842 2941340.0
238 -0.02625 8.83584e-05 2462.07 276.29 5.08372 5.12751 -215.769 -320.079 2983540.0
239 -0.02615 8.83591e-05 2462.06 276.364 5.08513 5.13016 -220.766 -328.286 3021920.0
240 -0.02605 8.83591e-05 2462.05 276.477 5.08721 5.13365 -228.035 -338.296 3069460.0
241 -0.02595 8.83593e-05 2462.04 276.568 5.0889 5.13662 -234.531 -347.988 3118400.0
242 -0.02585 8.83613e-05 2462.02 276.669 5.09088 5.14003 -241.351 -357.949 3166200.0
243 -0.02575 8.83604e-05 2462.0 276.749 5.0923 5.14255 -246.805 -366.421 3206960.0
244 -0.02565 8.83615e-05 2461.99 276.866 5.09451 5.14644 -254.603 -377.895 3262050.0
245 -0.02555 8.83619e-05 2461.97 276.977 5.09657 5.14991 -262.03 -388.211 3313430.0
246 -0.02545 8.83635e-05 2461.96 277.106 5.09904 5.1542 -270.771 -400.744 3373130.0
247 -0.02535 8.83627e-05 2461.94 277.206 5.10083 5.15739 -277.626 -411.407 3424530.0
248 -0.02525 8.83635e-05 2461.91 277.337 5.10329 5.16176 -286.453 -424.041 3483690.0
249 -0.02515 8.83648e-05 2461.9 277.454 5.10553 5.16568 -294.316 -436.181 3542030.0
250 -0.02505 8.83651e-05 2461.88 277.577 5.10781 5.16977 -302.6 -448.695 3600040.0
251 -0.02495 8.8366e-05 2461.87 277.71 5.11029 5.17422 -311.589 -461.725 3662870.0
252 -0.02485 8.83673e-05 2461.84 277.843 5.11282 5.17872 -320.521 -475.414 3725870.0
253 -0.02475 8.83671e-05 2461.82 277.952 5.11482 5.18219 -328.145 -487.131 3784560.0
254 -0.02465 8.83683e-05 2461.81 278.102 5.11764 5.18701 -337.987 -501.289 3853350.0
255 -0.02455 8.8369e-05 2461.78 278.238 5.1202 5.19144 -347.333 -515.062 3920620.0
256 -0.02445 8.83688e-05 2461.76 278.37 5.12261 5.1956 -356.167 -528.437 3985780.0
257 -0.02435 8.83702e-05 2461.74 278.541 5.12583 5.20116 -367.614 -544.76 4064140.0
258 -0.02425 8.83717e-05 2461.71 278.708 5.12899 5.2067 -378.952 -561.516 4143070.0
259 -0.02415 8.83726e-05 2461.69 278.877 5.13215 5.2119 -390.167 -577.308 4221600.0
260 -0.02405 8.83728e-05 2461.66 279.049 5.13534 5.21788 -402.151 -595.71 4306040.0
261 -0.02395 8.83748e-05 2461.63 279.232 5.13881 5.22401 -414.168 -613.64 4390600.0
262 -0.02385 8.8375e-05 2461.61 279.378 5.14151 5.2287 -424.256 -629.215 4466900.0
263 -0.02375 8.83757e-05 2461.59 279.571 5.14511 5.23487 -436.964 -647.313 4554090.0
264 -0.02365 8.83774e-05 2461.55 279.763 5.14875 5.24166 -450.225 -668.191 4649150.0
265 -0.02355 8.8378e-05 2461.53 279.944 5.15211 5.24743 -462.168 -685.835 4734470.0
266 -0.02345 8.83789e-05 2461.49 280.143 5.15583 5.25456 -475.961 -707.536 4834890.0
267 -0.02335 8.83796e-05 2461.46 280.343 5.15955 5.26082 -489.128 -726.18 4923600.0
268 -0.02325 8.83822e-05 2461.43 280.572 5.16392 5.26848 -504.648 -749.103 5034290.0
269 -0.02315 8.83821e-05 2461.4 280.769 5.16754 5.27506 -518.038 -769.621 5130750.0
270 -0.02305 8.83833e-05 2461.37 280.984 5.17155 5.28199 -532.491 -790.768 5233630.0
271 -0.02295 8.83846e-05 2461.33 281.216 5.17592 5.28984 -548.174 -814.513 5344360.0
272 -0.02285 8.83864e-05 2461.3 281.45 5.18032 5.29743 -563.81 -837.718 5455760.0
273 -0.02275 8.83879e-05 2461.26 281.695 5.18491 5.30544 -580.485 -862.071 5573480.0
274 -0.02265 8.83884e-05 2461.22 281.936 5.18939 5.31341 -596.826 -886.38 5687880.0
275 -0.02255 8.83903e-05 2461.18 282.207 5.19449 5.32264 -615.05 -913.796 5817220.0
276 -0.02245 8.83912e-05 2461.14 282.478 5.19952 5.33112 -633.155 -939.766 5943650.0
277 -0.02235 8.83932e-05 2461.1 282.766 5.20495 5.34068 -652.744 -968.645 6079300.0
278 -0.02225 8.83952e-05 2461.06 283.049 5.21026 5.3501 -671.886 -997.199 6216440.0
279 -0.02215 8.8396e-05 2461.02 283.329 5.21546 5.35938 -690.781 -1025.71 6350040.0
280 -0.02205 8.83976e-05 2460.97 283.633 5.22115 5.36959 -710.852 -1055.95 6489550.0
281 -0.02195 8.8399e-05 2460.92 283.933 5.22676 5.37927 -731.497 -1086.55 6639970.0
282 -0.02185 8.84003e-05 2460.88 284.243 5.23254 5.38958 -752.194 -1117.65 6786690.0
283 -0.02175 8.84022e-05 2460.83 284.577 5.23881 5.40074 -774.62 -1150.81 6940300.0
284 -0.02165 8.84051e-05 2460.77 284.913 5.24518 5.41178 -797.644 -1184.84 7106670.0
285 -0.02155 8.84068e-05 2460.72 285.288 5.25216 5.42431 -822.912 -1222.26 7280340.0
286 -0.02145 8.8409e-05 2460.67 285.61 5.25823 5.43497 -844.451 -1254.79 7435160.0
287 -0.02135 8.84101e-05 2460.62 285.981 5.26513 5.44701 -869.611 -1291.86 7614520.0
288 -0.02125 8.84118e-05 2460.56 286.35 5.27202 5.45918 -894.449 -1328.9 7790320.0
289 -0.02115 8.84145e-05 2460.5 286.735 5.27928 5.47174 -920.018 -1366.22 7968280.0
290 -0.02105 8.84163e-05 2460.44 287.146 5.28695 5.48546 -948.364 -1408.82 8170540.0
291 -0.02095 8.84191e-05 2460.38 287.54 5.29436 5.49863 -974.856 -1448.89 8359320.0
292 -0.02085 8.84209e-05 2460.31 287.948 5.30199 5.51208 -1001.78 -1488.88 8547760.0
293 -0.02075 8.84231e-05 2460.25 288.379 5.31005 5.52664 -1031.11 -1533.5 8756360.0
294 -0.02065 8.84262e-05 2460.17 288.881 5.31949 5.54295 -1064.97 -1582.01 8990660.0
295 -0.02055 8.84278e-05 2460.1 289.348 5.32819 5.55829 -1096.62 -1628.97 9212260.0
296 -0.02045 8.84315e-05 2460.03 289.834 5.33736 5.57452 -1129.03 -1677.24 9438870.0
297 -0.02035 8.84338e-05 2459.96 290.301 5.34609 5.59061 -1160.74 -1726.72 9667530.0
298 -0.02025 8.84372e-05 2459.87 290.845 5.35632 5.60895 -1197.38 -1781.35 9920780.0
299 -0.02015 8.8439e-05 2459.8 291.365 5.366 5.62572 -1232.6 -1832.98 10170800.0
300 -0.02005 8.84426e-05 2459.71 291.917 5.3764 5.64404 -1269.36 -1887.51 10423800.0
301 -0.01995 8.84454e-05 2459.63 292.469 5.38673 5.66211 -1306.92 -1943.25 10691000.0
302 -0.01985 8.84486e-05 2459.55 293.009 5.39688 5.68028 -1343.1 -1998.1 10948900.0
303 -0.01975 8.84518e-05 2459.46 293.573 5.40745 5.69901 -1381.53 -2055.85 11222500.0
304 -0.01965 8.84544e-05 2459.37 294.162 5.41846 5.71877 -1421.02 -2115.69 11501600.0
305 -0.01955 8.84586e-05 2459.27 294.841 5.43122 5.74099 -1466.51 -2181.91 11815800.0
306 -0.01945 8.84614e-05 2459.18 295.461 5.44281 5.76164 -1508.44 -2245.16 12112600.0
307 -0.01935 8.84658e-05 2459.06 296.199 5.45667 5.78627 -1558.2 -2318.21 12454700.0
308 -0.01925 8.84691e-05 2458.96 296.89 5.46961 5.80924 -1604.61 -2387.57 12780200.0
309 -0.01915 8.84738e-05 2458.85 297.639 5.4837 5.83401 -1655.12 -2461.25 13126900.0
310 -0.01905 8.84777e-05 2458.72 298.4 5.49797 5.85962 -1706.35 -2537.68 13484300.0
311 -0.01895 8.84818e-05 2458.61 299.156 5.51215 5.88475 -1757.61 -2614.47 13845200.0
312 -0.01885 8.84858e-05 2458.49 299.917 5.52643 5.90976 -1808.23 -2689.46 14196600.0
313 -0.01875 8.8491e-05 2458.38 300.727 5.54168 5.93704 -1863.49 -2772.4 14589300.0
314 -0.01865 8.84948e-05 2458.24 301.56 5.55727 5.96472 -1919.13 -2854.69 14973100.0
315 -0.01855 8.84995e-05 2458.11 302.482 5.57456 5.99533 -1981.41 -2946.19 15401500.0
316 -0.01845 8.85052e-05 2457.97 303.363 5.59114 6.02475 -2040.46 -3034.3 15813400.0
317 -0.01835 8.85095e-05 2457.84 304.255 5.60787 6.05441 -2100.97 -3124.32 16238800.0
318 -0.01825 8.85151e-05 2457.69 305.198 5.62559 6.08528 -2164.05 -3217.18 16678400.0
319 -0.01815 8.85193e-05 2457.55 306.188 5.64413 6.11777 -2230.57 -3314.54 17140300.0
320 -0.01805 8.8525e-05 2457.39 307.17 5.66258 6.15104 -2297.16 -3415.56 17607500.0
321 -0.01795 8.85315e-05 2457.23 308.19 5.6818 6.18605 -2365.48 -3519.72 18087000.0
322 -0.01785 8.85375e-05 2457.07 309.284 5.70236 6.22284 -2439.1 -3629.66 18598100.0
323 -0.01775 8.85432e-05 2456.89 310.418 5.72364 6.26 -2515.51 -3741.38 19125700.0
324 -0.01765 8.85496e-05 2456.72 311.55 5.74493 6.29836 -2591.84 -3856.45 19662500.0
325 -0.01755 8.85562e-05 2456.54 312.734 5.76719 6.3378 -2670.81 -3973.59 20204000.0
326 -0.01745 8.85623e-05 2456.35 313.969 5.79037 6.37958 -2754.98 -4100.29 20796800.0
327 -0.01735 8.85711e-05 2456.15 315.234 5.81427 6.42204 -2839.13 -4225.42 21375500.0
328 -0.01725 8.85766e-05 2455.97 316.461 5.83725 6.46291 -2921.9 -4349.81 21961900.0
329 -0.01715 8.85832e-05 2455.77 317.746 5.86139 6.50569 -3008.37 -4478.92 22567200.0
330 -0.01705 8.85916e-05 2455.56 319.113 5.88717 6.55197 -3100.36 -4616.95 23208300.0
331 -0.01695 8.8599e-05 2455.34 320.521 5.91364 6.59987 -3194.58 -4759.04 23860200.0
332 -0.01685 8.86063e-05 2455.11 322.033 5.94202 6.65079 -3296.56 -4910.76 24561400.0
333 -0.01675 8.86155e-05 2454.9 323.43 5.96843 6.69707 -3390.68 -5051.07 25228700.0
334 -0.01665 8.86238e-05 2454.66 325.004 5.99803 6.74958 -3496.44 -5208.39 25962500.0
335 -0.01655 8.86319e-05 2454.41 326.637 6.02872 6.80402 -3605.72 -5369.95 26712900.0
336 -0.01645 8.86417e-05 2454.15 328.272 6.05956 6.85934 -3715.53 -5534.17 27472400.0
337 -0.01635 8.86514e-05 2453.89 329.982 6.0918 6.9164 -3830.23 -5704.39 28267900.0
338 -0.01625 8.86601e-05 2453.62 331.743 6.12491 6.97647 -3948.89 -5883.84 29092000.0
339 -0.01615 8.86711e-05 2453.34 333.578 6.15956 7.03829 -4071.85 -6066.04 29935300.0
340 -0.01605 8.86825e-05 2453.04 335.495 6.19576 7.10331 -4200.83 -6259.04 30827400.0
341 -0.01595 8.86923e-05 2452.75 337.362 6.23091 7.1669 -4326.05 -6448.59 31699200.0
342 -0.01585 8.87023e-05 2452.43 339.402 6.2693 7.23536 -4462.78 -6650.7 32631400.0
343 -0.01575 8.87152e-05 2452.12 341.453 6.3081 7.30381 -4601.64 -6856.82 33605300.0
344 -0.01565 8.87257e-05 2451.79 343.522 6.34707 7.37462 -4738.76 -7064.93 34547000.0
345 -0.01555 8.87383e-05 2451.46 345.685 6.38795 7.44739 -4884.42 -7282.36 35559200.0
346 -0.01545 8.8751e-05 2451.11 347.945 6.43064 7.52357 -5035.72 -7507.75 36602200.0
347 -0.01535 8.87645e-05 2450.74 350.358 6.47621 7.60618 -5197.98 -7751.74 37718400.0
348 -0.01525 8.87778e-05 2450.37 352.761 6.52161 7.68744 -5359.19 -7991.82 38827000.0
349 -0.01515 8.87918e-05 2449.98 355.243 6.56853 7.77068 -5524.88 -8238.35 39968000.0
350 -0.01505 8.88062e-05 2449.57 357.95 6.61965 7.86208 -5706.88 -8506.72 41208900.0
351 -0.01495 8.88212e-05 2449.16 360.582 6.66945 7.95142 -5882.27 -8769.21 42411900.0
352 -0.01485 8.88375e-05 2448.71 363.447 6.72368 8.04958 -6074.77 -9057.19 43728300.0
353 -0.01475 8.88528e-05 2448.28 366.208 6.77592 8.14282 -6259.9 -9334.41 45010100.0
354 -0.01465 8.88701e-05 2447.82 369.173 6.83212 8.24338 -6457.95 -9629.51 46365200.0