ITEM: TIMESTEP
30000
ITEM: NUMBER OF CELLS
800
ITEM: BOX BOUNDS os pp pp
-0.05 0.03
-0.001 0.001
-0.001 0.001
ITEM: CELLS id f_1[1] f_1[2] f_1[3] f_1[4] f_1[5] f_1[6] f_1[7] f_1[8] f_1[9] 
1 -0.04995 8.83415e-05 2462.54 273.118 5.02442 5.02334 -0.280032 -0.459591 1.42924e+06 
2 -0.04985 8.83425e-05 2462.54 273.12 5.0245 5.0235 -0.28847 -0.439722 1.42945e+06 
3 -0.04975 8.83421e-05 2462.54 273.12 5.02448 5.02345 -0.311025 -0.497183 1.42948e+06 
4 -0.04965 8.83421e-05 2462.54 273.12 5.02449 5.02349 -0.357917 -0.557915 1.42966e+06 
5 -0.04955 8.83417e-05 2462.54 273.12 5.02445 5.02343 -0.370467 -0.563081 1.42967e+06 
6 -0.04945 8.83414e-05 2462.54 273.121 5.02445 5.02352 -0.341702 -0.568523 1.42977e+06 
7 -0.04935 8.8342e-05 2462.54 273.12 5.02448 5.02352 -0.443865 -0.693686 1.43024e+06 
8 -0.04925 8.83416e-05 2462.54 273.121 5.02447 5.02348 -0.408578 -0.676005 1.4302e+06 
9 -0.04915 8.8342e-05 2462.54 273.121 5.0245 5.02358 -0.437672 -0.70267 1.43022e+06 
10 -0.04905 8.83423e-05 2462.54 273.122 5.02453 5.02353 -0.451918 -0.71847 1.43035e+06 
11 -0.04895 8.83421e-05 2462.54 273.121 5.0245 5.02354 -0.549262 -0.835094 1.43083e+06 
12 -0.04885 8.83413e-05 2462.54 273.122 5.02447 5.0235 -0.518113 -0.822905 1.43069e+06 
13 -0.04875 8.83413e-05 2462.54 273.124 5.0245 5.02353 -0.573184 -0.9077 1.43099e+06 
14 -0.04865 8.83421e-05 2462.54 273.124 5.02455 5.02361 -0.597876 -0.953674 1.43129e+06 
15 -0.04855 8.83417e-05 2462.54 273.125 5.02456 5.02356 -0.635121 -1.02109 1.43151e+06 
16 -0.04845 8.83419e-05 2462.54 273.123 5.02452 5.0236 -0.63006 -0.998416 1.4315e+06 
17 -0.04835 8.8342e-05 2462.54 273.125 5.02456 5.02359 -0.610903 -0.984417 1.43155e+06 
18 -0.04825 8.83415e-05 2462.54 273.124 5.02451 5.02359 -0.64073 -1.04063 1.43164e+06 
19 -0.04815 8.83424e-05 2462.54 273.123 5.02455 5.02371 -0.639511 -1.03319 1.43183e+06 
20 -0.04805 8.83419e-05 2462.54 273.125 5.02455 5.02368 -0.654801 -1.04545 1.43192e+06 
21 -0.04795 8.8342e-05 2462.54 273.124 5.02455 5.02368 -0.686112 -1.11682 1.43207e+06 
22 -0.04785 8.83412e-05 2462.54 273.125 5.02452 5.02363 -0.726341 -1.1396 1.43238e+06 
23 -0.04775 8.83419e-05 2462.53 273.127 5.02459 5.02371 -0.772427 -1.21166 1.43242e+06 
24 -0.04765 8.83416e-05 2462.54 273.127 5.02458 5.02378 -0.774424 -1.18422 1.4328e+06 
25 -0.04755 8.83419e-05 2462.53 273.126 5.02458 5.02372 -0.789967 -1.26058 1.43283e+06 
34 -0.04665 8.83414e-05 2462.54 273.129 5.02461 5.02364 -1.01715 -1.57572 1.43462e+06 
33 -0.04675 8.83427e-05 2462.54 273.13 5.0247 5.02378 -1.05086 -1.59904 1.43455e+06 
35 -0.04655 8.83412e-05 2462.54 273.13 5.02461 5.0237 -1.09145 -1.65243 1.43506e+06 
36 -0.04645 8.83423e-05 2462.54 273.131 5.02469 5.02374 -1.09593 -1.66501 1.43511e+06 
37 -0.04635 8.8342e-05 2462.54 273.13 5.02465 5.02378 -1.10269 -1.71202 1.43534e+06 
38 -0.04625 8.83415e-05 2462.54 273.132 5.02467 5.02377 -1.21079 -1.84606 1.4359e+06 
39 -0.04615 8.83419e-05 2462.54 273.133 5.0247 5.0238 -1.31035 -1.943 1.43648e+06 
40 -0.04605 8.83424e-05 2462.54 273.137 5.0248 5.02398 -1.48501 -2.17814 1.43768e+06 
41 -0.04595 8.83411e-05 2462.54 273.135 5.0247 5.02389 -1.41508 -2.09466 1.43718e+06 
42 -0.04585 8.83417e-05 2462.54 273.135 5.02474 5.02392 -1.35921 -2.09537 1.43705e+06 
43 -0.04575 8.83424e-05 2462.54 273.135 5.02477 5.02398 -1.43247 -2.21797 1.43765e+06 
44 -0.04565 8.83422e-05 2462.54 273.136 5.02477 5.02404 -1.38814 -2.14598 1.43745e+06 
45 -0.04555 8.83418e-05 2462.54 273.136 5.02476 5.02407 -1.54173 -2.32452 1.43834e+06 
46 -0.04545 8.8342e-05 2462.54 273.135 5.02476 5.02403 -1.60737 -2.37703 1.43878e+06 
47 -0.04535 8.83422e-05 2462.54 273.136 5.02478 5.0241 -1.47107 -2.25979 1.43815e+06 
48 -0.04525 8.83419e-05 2462.53 273.135 5.02475 5.02402 -1.49706 -2.31322 1.43835e+06 
49 -0.04515 8.83414e-05 2462.54 273.136 5.02474 5.02399 -1.47358 -2.27414 1.43827e+06 
50 -0.04505 8.83422e-05 2462.54 273.136 5.02478 5.02405 -1.48351 -2.31267 1.43844e+06 
26 -0.04745 8.83423e-05 2462.54 273.124 5.02457 5.02368 -0.837046 -1.29757 1.43277e+06 
27 -0.04735 8.8342e-05 2462.54 273.129 5.02464 5.02387 -0.926215 -1.42054 1.4336e+06 
28 -0.04725 8.83415e-05 2462.54 273.13 5.02463 5.02375 -0.935403 -1.43844 1.43355e+06 
29 -0.04715 8.83425e-05 2462.53 273.127 5.02462 5.02375 -0.920108 -1.44834 1.43356e+06 
30 -0.04705 8.8341e-05 2462.54 273.129 5.02458 5.02372 -0.919454 -1.44005 1.43363e+06 
31 -0.04695 8.83417e-05 2462.54 273.128 5.02461 5.02376 -1.03572 -1.61852 1.4344e+06 
32 -0.04685 8.83423e-05 2462.54 273.13 5.02468 5.0238 -1.00061 -1.57191 1.43433e+06 
67 -0.04335 8.8342e-05 2462.53 273.154 5.0251 5.02479 -2.67275 -3.96848 1.44647e+06 
65 -0.04355 8.83419e-05 2462.53 273.15 5.02503 5.02472 -2.44905 -3.72284 1.44496e+06 
66 -0.04345 8.83426e-05 2462.54 273.149 5.02505 5.02482 -2.46926 -3.75798 1.44537e+06 
68 -0.04325 8.83422e-05 2462.53 273.154 5.02511 5.02492 -2.70889 -4.03328 1.44662e+06 
69 -0.04315 8.83419e-05 2462.53 273.153 5.02506 5.0249 -2.69011 -4.00802 1.44691e+06 
70 -0.04305 8.83425e-05 2462.53 273.157 5.02518 5.02496 -2.94073 -4.34138 1.44854e+06 
71 -0.04295 8.83423e-05 2462.53 273.157 5.02517 5.02504 -2.95713 -4.3831 1.4487e+06 
72 -0.04285 8.83428e-05 2462.53 273.155 5.02516 5.02506 -2.9105 -4.29245 1.44844e+06 
73 -0.04275 8.83415e-05 2462.53 273.16 5.02518 5.02525 -3.1046 -4.72653 1.44998e+06 
74 -0.04265 8.83417e-05 2462.53 273.158 5.02515 5.02516 -3.06603 -4.56765 1.4498e+06 
75 -0.04255 8.83426e-05 2462.53 273.157 5.02518 5.0252 -3.07995 -4.57918 1.45008e+06 
51 -0.04495 8.83415e-05 2462.54 273.136 5.02474 5.02411 -1.60768 -2.44834 1.43925e+06 
52 -0.04485 8.8342e-05 2462.54 273.137 5.02479 5.02419 -1.62897 -2.49985 1.43932e+06 
53 -0.04475 8.83418e-05 2462.53 273.138 5.0248 5.02414 -1.78675 -2.70953 1.44026e+06 
54 -0.04465 8.83417e-05 2462.54 273.141 5.02485 5.0243 -1.84897 -2.777 1.44068e+06 
55 -0.04455 8.8342e-05 2462.54 273.141 5.02485 5.02427 -1.79138 -2.76267 1.44039e+06 
56 -0.04445 8.83415e-05 2462.54 273.141 5.02484 5.02428 -1.90596 -2.88157 1.44113e+06 
57 -0.04435 8.8342e-05 2462.53 273.14 5.02484 5.02433 -1.85983 -2.84104 1.44089e+06 
58 -0.04425 8.83416e-05 2462.53 273.142 5.02485 5.02432 -1.91627 -2.90215 1.44136e+06 
59 -0.04415 8.83418e-05 2462.54 273.145 5.02492 5.02441 -2.04001 -3.10152 1.44224e+06 
60 -0.04405 8.83426e-05 2462.53 273.144 5.02495 5.02447 -2.11093 -3.19985 1.44259e+06 
61 -0.04395 8.83418e-05 2462.54 273.145 5.02493 5.02451 -2.20068 -3.34725 1.44317e+06 
62 -0.04385 8.83424e-05 2462.53 273.147 5.02499 5.02454 -2.24484 -3.43644 1.44338e+06 
63 -0.04375 8.83421e-05 2462.53 273.147 5.02497 5.02467 -2.23642 -3.45657 1.44373e+06 
64 -0.04365 8.83421e-05 2462.53 273.147 5.02498 5.02466 -2.31602 -3.50823 1.44423e+06 
100 -0.04005 8.83427e-05 2462.52 273.197 5.02593 5.02664 -5.76229 -8.44772 1.4703e+06 
97 -0.04035 8.83417e-05 2462.53 273.187 5.02569 5.02624 -5.13659 -7.70732 1.46597e+06 
98 -0.04025 8.83423e-05 2462.53 273.193 5.02584 5.02647 -5.2783 -7.87059 1.46713e+06 
99 -0.04015 8.8343e-05 2462.52 273.195 5.0259 5.02659 -5.5542 -8.29252 1.46913e+06 
76 -0.04245 8.83418e-05 2462.53 273.163 5.02525 5.02526 -3.31387 -4.88992 1.45148e+06 
77 -0.04235 8.8342e-05 2462.53 273.164 5.02529 5.02536 -3.41571 -4.9785 1.45211e+06 
78 -0.04225 8.83419e-05 2462.53 273.164 5.02528 5.02542 -3.46732 -5.10142 1.45289e+06 
79 -0.04215 8.83426e-05 2462.53 273.165 5.02534 5.02545 -3.39055 -5.01618 1.45263e+06 
80 -0.04205 8.83416e-05 2462.53 273.168 5.02534 5.02549 -3.91277 -5.62641 1.45571e+06 
81 -0.04195 8.83424e-05 2462.53 273.168 5.02538 5.02547 -3.7948 -5.5239 1.45489e+06 
82 -0.04185 8.83418e-05 2462.53 273.173 5.02543 5.02562 -4.00212 -5.81966 1.45665e+06 
83 -0.04175 8.83421e-05 2462.53 273.171 5.02542 5.02557 -4.08843 -6.0084 1.45721e+06 
84 -0.04165 8.83423e-05 2462.53 273.172 5.02544 5.0256 -4.02068 -5.90314 1.45739e+06 
85 -0.04155 8.83429e-05 2462.53 273.175 5.02555 5.02569 -4.23211 -6.09975 1.45824e+06 
86 -0.04145 8.83422e-05 2462.53 273.177 5.02554 5.02574 -4.30205 -6.26249 1.45913e+06 
87 -0.04135 8.83423e-05 2462.53 273.175 5.02551 5.02578 -4.24082 -6.24077 1.45928e+06 
88 -0.04125 8.83416e-05 2462.53 273.178 5.02552 5.02579 -4.34038 -6.40839 1.45979e+06 
89 -0.04115 8.83421e-05 2462.53 273.178 5.02555 5.02593 -4.45965 -6.6305 1.46095e+06 
90 -0.04105 8.83426e-05 2462.53 273.179 5.0256 5.026 -4.68144 -6.9255 1.46198e+06 
91 -0.04095 8.83425e-05 2462.53 273.184 5.02567 5.02615 -4.66502 -6.93648 1.46233e+06 
92 -0.04085 8.83423e-05 2462.53 273.182 5.02563 5.02609 -4.66063 -6.98851 1.46249e+06 
93 -0.04075 8.83417e-05 2462.53 273.18 5.02556 5.02597 -4.65669 -6.95945 1.46241e+06 
94 -0.04065 8.83429e-05 2462.53 273.184 5.0257 5.02627 -4.79198 -7.14062 1.46375e+06 
95 -0.04055 8.83424e-05 2462.52 273.184 5.02568 5.02621 -4.93123 -7.41685 1.46452e+06 
96 -0.04045 8.83423e-05 2462.53 273.189 5.02576 5.02631 -5.06376 -7.56778 1.46552e+06 
101 -0.03995 8.8342e-05 2462.53 273.2 5.02595 5.02671 -5.91705 -8.72961 1.47154e+06 
102 -0.03985 8.83426e-05 2462.52 273.2 5.02599 5.02676 -5.92692 -8.83024 1.47213e+06 
103 -0.03975 8.83426e-05 2462.52 273.202 5.02601 5.0268 -5.95814 -8.86977 1.47243e+06 
104 -0.03965 8.83423e-05 2462.52 273.205 5.02606 5.02684 -6.31882 -9.36029 1.4745e+06 
105 -0.03955 8.8343e-05 2462.52 273.209 5.02618 5.02702 -6.55151 -9.62834 1.4762e+06 
106 -0.03945 8.83423e-05 2462.52 273.215 5.02624 5.02719 -6.86503 -10.0928 1.47809e+06 
107 -0.03935 8.83426e-05 2462.52 273.216 5.02628 5.02728 -7.13313 -10.4477 1.47994e+06 
108 -0.03925 8.83419e-05 2462.52 273.219 5.02629 5.02728 -7.17457 -10.6159 1.48058e+06 
109 -0.03915 8.83427e-05 2462.52 273.222 5.02639 5.02735 -7.25237 -10.6892 1.48154e+06 
110 -0.03905 8.8343e-05 2462.52 273.224 5.02644 5.02755 -7.51766 -10.9911 1.48306e+06 
111 -0.03895 8.83423e-05 2462.52 273.23 5.02651 5.0276 -7.94587 -11.4304 1.48591e+06 
112 -0.03885 8.83425e-05 2462.52 273.232 5.02656 5.02767 -7.97187 -11.4742 1.48636e+06 
113 -0.03875 8.83432e-05 2462.52 273.235 5.02666 5.02789 -8.29845 -12.0403 1.48869e+06 
114 -0.03865 8.83427e-05 2462.52 273.237 5.02666 5.02797 -8.34432 -12.1985 1.48905e+06 
115 -0.03855 8.83426e-05 2462.52 273.236 5.02665 5.02789 -8.33274 -12.2067 1.48954e+06 
116 -0.03845 8.83425e-05 2462.52 273.24 5.0267 5.02806 -8.65209 -12.7234 1.49226e+06 
117 -0.03835 8.83428e-05 2462.52 273.241 5.02674 5.02806 -8.60794 -12.5499 1.49145e+06 
118 -0.03825 8.83428e-05 2462.52 273.247 5.02685 5.02826 -9.15376 -13.4323 1.49556e+06 
119 -0.03815 8.83423e-05 2462.51 273.254 5.02696 5.02843 -9.37399 -13.7355 1.49664e+06 
120 -0.03805 8.83431e-05 2462.51 273.259 5.0271 5.02868 -9.86726 -14.4265 1.50017e+06 
121 -0.03795 8.83427e-05 2462.52 273.259 5.02707 5.02864 -9.8447 -14.325 1.50016e+06 
122 -0.03785 8.83427e-05 2462.51 273.264 5.02716 5.02882 -10.2132 -14.9066 1.50284e+06 
123 -0.03775 8.83433e-05 2462.51 273.266 5.02722 5.02893 -10.4016 -15.2249 1.50427e+06 
124 -0.03765 8.83426e-05 2462.51 273.273 5.02732 5.02904 -10.7533 -15.6925 1.50658e+06 
125 -0.03755 8.83433e-05 2462.51 273.274 5.02738 5.02915 -10.9305 -16.0195 1.50797e+06 
134 -0.03665 8.8343e-05 2462.51 273.32 5.0282 5.03049 -13.7619 -20.176 1.52937e+06 
129 -0.03715 8.83434e-05 2462.51 273.298 5.02784 5.02994 -12.5942 -18.3604 1.51962e+06 
130 -0.03705 8.83437e-05 2462.51 273.305 5.02796 5.03013 -12.7691 -18.5894 1.52038e+06 
131 -0.03695 8.83429e-05 2462.51 273.305 5.02793 5.03016 -12.9533 -18.9978 1.52259e+06 
132 -0.03685 8.83427e-05 2462.51 273.306 5.02793 5.03017 -12.9456 -19.017 1.52339e+06 
133 -0.03675 8.83427e-05 2462.51 273.31 5.02801 5.0303 -13.3202 -19.69 1.52581e+06 
135 -0.03655 8.83437e-05 2462.5 273.323 5.02831 5.03071 -14.3249 -20.9559 1.53259e+06 
136 -0.03645 8.8343e-05 2462.51 273.331 5.02841 5.03095 -14.6529 -21.4371 1.53521e+06 
137 -0.03635 8.83429e-05 2462.5 273.332 5.02842 5.03093 -14.7422 -21.8163 1.5363e+06 
138 -0.03625 8.83433e-05 2462.5 273.339 5.02858 5.03124 -15.1767 -22.4437 1.53978e+06 
139 -0.03615 8.83436e-05 2462.5 273.345 5.0287 5.03137 -15.512 -22.8416 1.5418e+06 
140 -0.03605 8.83432e-05 2462.5 273.344 5.02866 5.03134 -15.5198 -23.0335 1.5427e+06 
141 -0.03595 8.8343e-05 2462.5 273.352 5.02879 5.03162 -15.9232 -23.6374 1.54596e+06 
142 -0.03585 8.83438e-05 2462.5 273.354 5.02887 5.03176 -16.1611 -24.032 1.54775e+06 
143 -0.03575 8.8343e-05 2462.5 273.361 5.02895 5.03191 -16.813 -25.0748 1.55265e+06 
144 -0.03565 8.8344e-05 2462.5 273.369 5.02916 5.03228 -17.2064 -25.5082 1.55487e+06 
145 -0.03555 8.83434e-05 2462.5 273.376 5.02926 5.03242 -17.6608 -26.2117 1.55854e+06 
146 -0.03545 8.83433e-05 2462.5 273.387 5.02945 5.03279 -18.3369 -27.0405 1.56299e+06 
147 -0.03535 8.83434e-05 2462.49 273.394 5.02959 5.03302 -19.0131 -28.0294 1.56762e+06 
148 -0.03525 8.83437e-05 2462.49 273.403 5.02978 5.03329 -19.4654 -28.5723 1.57061e+06 
149 -0.03515 8.83433e-05 2462.49 273.413 5.02994 5.03361 -20.2074 -29.6589 1.57563e+06 
150 -0.03505 8.83449e-05 2462.49 273.426 5.03026 5.03423 -20.9536 -30.8177 1.58113e+06 
126 -0.03745 8.83426e-05 2462.51 273.281 5.02746 5.02936 -11.3496 -16.7234 1.51117e+06 
127 -0.03735 8.83423e-05 2462.51 273.286 5.02754 5.0294 -11.6357 -16.959 1.51274e+06 
128 -0.03725 8.83426e-05 2462.51 273.295 5.02772 5.02972 -12.1356 -17.6435 1.51598e+06 
167 -0.03335 8.83452e-05 2462.46 273.6 5.03349 5.03987 -32.6719 -48.2669 1.66556e+06 
161 -0.03395 8.83443e-05 2462.47 273.526 5.03207 5.03749 -27.8099 -40.948 1.63042e+06 
162 -0.03385 8.83435e-05 2462.47 273.541 5.03231 5.03784 -28.5709 -42.1275 1.63622e+06 
163 -0.03375 8.8344e-05 2462.47 273.548 5.03246 5.03813 -29.2241 -43.0028 1.64089e+06 
164 -0.03365 8.83445e-05 2462.47 273.561 5.03272 5.03862 -30.0839 -44.4547 1.64751e+06 
165 -0.03355 8.83442e-05 2462.47 273.571 5.03289 5.03886 -30.6746 -45.3071 1.65172e+06 
166 -0.03345 8.83446e-05 2462.46 273.581 5.0331 5.03924 -31.3844 -46.4692 1.65742e+06 
168 -0.03325 8.83447e-05 2462.46 273.612 5.03368 5.04026 -33.6278 -49.5729 1.67239e+06 
169 -0.03315 8.83445e-05 2462.46 273.622 5.03385 5.04055 -34.2201 -50.5242 1.67708e+06 
170 -0.03305 8.83448e-05 2462.46 273.639 5.03418 5.04098 -35.1325 -51.646 1.68308e+06 
171 -0.03295 8.83452e-05 2462.46 273.655 5.03449 5.04167 -36.3807 -53.7395 1.69271e+06 
172 -0.03285 8.83448e-05 2462.45 273.668 5.03472 5.04199 -37.2442 -54.8642 1.69804e+06 
173 -0.03275 8.83444e-05 2462.45 273.684 5.035 5.04253 -38.4485 -56.6057 1.70709e+06 
174 -0.03265 8.83457e-05 2462.45 273.694 5.03524 5.04289 -38.8255 -57.4956 1.7112e+06 
175 -0.03255 8.83452e-05 2462.44 273.715 5.0356 5.04354 -40.2824 -59.5784 1.72065e+06 
151 -0.03495 8.83436e-05 2462.49 273.429 5.03025 5.03423 -21.3126 -31.4997 1.5838e+06 
152 -0.03485 8.83439e-05 2462.49 273.438 5.03043 5.03449 -21.8498 -32.202 1.58838e+06 
153 -0.03475 8.8344e-05 2462.48 273.443 5.03054 5.03466 -22.2152 -32.8474 1.59079e+06 
154 -0.03465 8.83437e-05 2462.48 273.456 5.03075 5.03502 -23.1109 -33.7942 1.59619e+06 
155 -0.03455 8.83439e-05 2462.48 273.462 5.03087 5.03522 -23.447 -34.4151 1.60019e+06 
156 -0.03445 8.83444e-05 2462.49 273.47 5.03104 5.03556 -24.0185 -35.3738 1.60418e+06 
157 -0.03435 8.83436e-05 2462.48 273.479 5.03116 5.03574 -24.5841 -36.188 1.60818e+06 
158 -0.03425 8.83435e-05 2462.48 273.495 5.03146 5.03632 -25.6916 -37.8368 1.61547e+06 
159 -0.03415 8.83445e-05 2462.47 273.506 5.03172 5.03684 -26.4165 -38.9491 1.62059e+06 
160 -0.03405 8.83448e-05 2462.48 273.513 5.03187 5.03698 -26.9858 -39.6756 1.6249e+06 
200 -0.03005 8.83482e-05 2462.36 274.271 5.04599 5.06149 -77.6927 -115.06 1.99069e+06 
193 -0.03075 8.83468e-05 2462.39 274.068 5.0422 5.05481 -64.2172 -94.8989 1.89381e+06 
194 -0.03065 8.83481e-05 2462.39 274.101 5.04286 5.05603 -66.3281 -98.1058 1.91007e+06 
195 -0.03055 8.83478e-05 2462.38 274.126 5.04331 5.05681 -67.985 -100.67 1.92072e+06 
196 -0.03045 8.83472e-05 2462.38 274.152 5.04375 5.05746 -69.7004 -103.16 1.93478e+06 
197 -0.03035 8.83483e-05 2462.37 274.192 5.04455 5.05891 -72.281 -106.609 1.95095e+06 
198 -0.03025 8.8348e-05 2462.37 274.213 5.04492 5.05966 -73.7919 -109.394 1.9628e+06 
199 -0.03015 8.83478e-05 2462.37 274.244 5.04549 5.0607 -75.9705 -112.43 1.97793e+06 
176 -0.03245 8.83449e-05 2462.44 273.739 5.03602 5.04421 -42.0954 -61.9436 1.73244e+06 
177 -0.03235 8.83456e-05 2462.44 273.754 5.03634 5.04474 -43.0136 -63.3586 1.73928e+06 
178 -0.03225 8.83466e-05 2462.44 273.761 5.03652 5.04503 -43.4101 -64.0725 1.74406e+06 
179 -0.03215 8.83447e-05 2462.44 273.777 5.03672 5.04538 -44.5606 -65.7327 1.7516e+06 
180 -0.03205 8.8346e-05 2462.43 273.8 5.03721 5.04628 -46.1733 -68.2203 1.76307e+06 
181 -0.03195 8.83452e-05 2462.43 273.818 5.03749 5.0467 -47.1482 -69.5709 1.77019e+06 
182 -0.03185 8.83456e-05 2462.43 273.831 5.03776 5.04708 -48.2494 -71.0575 1.77898e+06 
183 -0.03175 8.83469e-05 2462.42 273.849 5.03816 5.04781 -49.4053 -72.958 1.78803e+06 
184 -0.03165 8.83455e-05 2462.43 273.862 5.03832 5.0481 -50.2358 -74.1475 1.79412e+06 
185 -0.03155 8.83459e-05 2462.42 273.889 5.03884 5.04913 -52.1279 -77.1403 1.80728e+06 
186 -0.03145 8.83463e-05 2462.42 273.905 5.03916 5.04952 -53.0041 -78.2592 1.81388e+06 
187 -0.03135 8.83465e-05 2462.41 273.926 5.03956 5.05015 -54.6603 -80.6131 1.82636e+06 
188 -0.03125 8.8347e-05 2462.41 273.952 5.04006 5.05116 -56.3151 -83.1018 1.83743e+06 
189 -0.03115 8.83464e-05 2462.4 273.979 5.04053 5.05201 -58.0249 -85.8945 1.84923e+06 
190 -0.03105 8.83463e-05 2462.4 273.997 5.04086 5.05258 -59.2942 -87.7918 1.85869e+06 
191 -0.03095 8.83469e-05 2462.4 274.026 5.04142 5.05354 -61.1906 -90.454 1.87214e+06 
192 -0.03085 8.83471e-05 2462.4 274.045 5.04179 5.05406 -62.5062 -92.3449 1.88264e+06 
201 -0.02995 8.83489e-05 2462.36 274.303 5.04663 5.06256 -79.7531 -118.091 2.0057e+06 
225 -0.02755 8.83539e-05 2462.19 275.424 5.06755 5.09874 -154.949 -228.742 2.54319e+06 
202 -0.02985 8.8349e-05 2462.35 274.34 5.04732 5.06381 -82.5109 -122.158 2.02503e+06 
203 -0.02975 8.83494e-05 2462.35 274.365 5.0478 5.06453 -83.872 -124.282 2.03544e+06 
204 -0.02965 8.83492e-05 2462.34 274.406 5.04854 5.0659 -86.6929 -128.559 2.05491e+06 
205 -0.02955 8.83476e-05 2462.34 274.443 5.04913 5.06691 -89.313 -132.15 2.07388e+06 
206 -0.02945 8.83489e-05 2462.33 274.472 5.04974 5.06789 -91.0056 -134.784 2.08684e+06 
207 -0.02935 8.83504e-05 2462.33 274.516 5.05063 5.06951 -94.0229 -139.224 2.10809e+06 
208 -0.02925 8.83492e-05 2462.32 274.549 5.05117 5.07028 -96.2899 -142.26 2.12266e+06 
209 -0.02915 8.83506e-05 2462.31 274.598 5.05214 5.07222 -99.6653 -147.666 2.14828e+06 
210 -0.02905 8.83501e-05 2462.31 274.645 5.05299 5.0737 -102.815 -152.219 2.16965e+06 
211 -0.02895 8.83504e-05 2462.3 274.687 5.05378 5.075 -105.69 -156.224 2.19006e+06 
212 -0.02885 8.83509e-05 2462.3 274.73 5.0546 5.07634 -108.38 -160.231 2.21048e+06 
213 -0.02875 8.83511e-05 2462.28 274.777 5.05548 5.07781 -111.65 -164.765 2.23174e+06 
214 -0.02865 8.83516e-05 2462.28 274.831 5.05649 5.07954 -115.187 -169.876 2.25756e+06 
215 -0.02855 8.83511e-05 2462.27 274.89 5.05755 5.08147 -119.049 -175.638 2.28386e+06 
216 -0.02845 8.83518e-05 2462.26 274.928 5.05829 5.08281 -121.634 -179.619 2.30282e+06 
217 -0.02835 8.83521e-05 2462.26 274.987 5.0594 5.08476 -125.569 -185.435 2.33075e+06 
218 -0.02825 8.83526e-05 2462.25 275.032 5.06026 5.08638 -128.749 -190.583 2.35469e+06 
219 -0.02815 8.83526e-05 2462.24 275.09 5.06132 5.08816 -132.455 -195.901 2.37953e+06 
220 -0.02805 8.83535e-05 2462.24 275.128 5.06208 5.08933 -135.143 -199.81 2.40206e+06 
221 -0.02795 8.83527e-05 2462.22 275.175 5.0629 5.09089 -138.343 -205.058 2.426e+06 
222 -0.02785 8.83533e-05 2462.22 275.245 5.06421 5.093 -142.766 -211.234 2.45666e+06 
223 -0.02775 8.83541e-05 2462.21 275.3 5.06527 5.09492 -146.617 -216.968 2.48417e+06 
224 -0.02765 8.83542e-05 2462.2 275.363 5.06644 5.09687 -150.91 -222.907 2.5149e+06 
234 -0.02665 8.83583e-05 2462.09 276.085 5.07996 5.12002 -199.181 -293.815 2.85869e+06 
226 -0.02745 8.83547e-05 2462.18 275.497 5.06893 5.10116 -159.904 -236.087 2.57825e+06 
227 -0.02735 8.83552e-05 2462.17 275.56 5.07011 5.10329 -164.072 -242.538 2.60825e+06 
228 -0.02725 8.83561e-05 2462.16 275.618 5.07123 5.1052 -167.762 -248.232 2.63526e+06 
229 -0.02715 8.83564e-05 2462.15 275.684 5.07247 5.10729 -172.313 -255.267 2.66961e+06 
230 -0.02705 8.83559e-05 2462.14 275.755 5.07374 5.10951 -176.878 -261.815 2.70114e+06 
231 -0.02695 8.83566e-05 2462.13 275.845 5.07544 5.11246 -183.13 -270.873 2.74553e+06 
232 -0.02685 8.83572e-05 2462.11 275.918 5.07681 5.11485 -187.934 -278.09 2.77911e+06 
233 -0.02675 8.83574e-05 2462.1 275.994 5.07822 5.11728 -193.009 -285.599 2.81537e+06 
235 -0.02655 8.83583e-05 2462.08 276.177 5.08164 5.12304 -205.177 -302.819 2.90078e+06 
236 -0.02645 8.8358e-05 2462.06 276.27 5.08335 5.12613 -211.627 -312.372 2.94556e+06 
237 -0.02635 8.83595e-05 2462.05 276.35 5.08489 5.12882 -216.758 -320.094 2.98246e+06 
238 -0.02625 8.83601e-05 2462.04 276.448 5.08674 5.13209 -223.322 -329.848 3.02811e+06 
239 -0.02615 8.83608e-05 2462.02 276.547 5.08859 5.13538 -230.125 -339.955 3.07692e+06 
240 -0.02605 8.83608e-05 2462.01 276.631 5.09014 5.13817 -235.539 -348.237 3.11459e+06 
241 -0.02595 8.83616e-05 2461.99 276.748 5.09235 5.14196 -243.554 -359.861 3.17197e+06 
242 -0.02585 8.83614e-05 2461.97 276.849 5.0942 5.14523 -250.313 -369.882 3.2199e+06 
243 -0.02575 8.83624e-05 2461.96 276.944 5.096 5.14827 -256.755 -379.537 3.26752e+06 
244 -0.02565 8.83633e-05 2461.95 277.038 5.09779 5.15147 -262.842 -389.055 3.31161e+06 
245 -0.02555 8.83639e-05 2461.93 277.171 5.10025 5.1558 -271.748 -401.949 3.37162e+06 
246 -0.02545 8.83643e-05 2461.91 277.281 5.1023 5.15937 -279.159 -412.869 3.42589e+06 
247 -0.02535 8.83645e-05 2461.9 277.394 5.1044 5.16279 -286.761 -423.8 3.48014e+06 
248 -0.02525 8.83656e-05 2461.87 277.512 5.10663 5.16706 -294.699 -436.471 3.5368e+06 
249 -0.02515 8.83667e-05 2461.86 277.643 5.10911 5.17156 -303.442 -449.544 3.59802e+06 
250 -0.02505 8.83671e-05 2461.84 277.762 5.11132 5.17521 -311.538 -461.411 3.65768e+06 
267 -0.02335 8.83827e-05 2461.4 280.648 5.16535 5.26939 -504.918 -746.591 5.02453e+06 
257 -0.02435 8.8372e-05 2461.68 278.795 5.13062 5.20908 -380.789 -563.725 4.14509e+06 
258 -0.02425 8.83732e-05 2461.66 278.945 5.13344 5.214 -390.684 -578.468 4.21685e+06 
259 -0.02415 8.83738e-05 2461.64 279.105 5.13643 5.21907 -401.673 -594.645 4.29803e+06 
260 -0.02405 8.83751e-05 2461.61 279.269 5.13952 5.22419 -412.428 -609.904 4.3725e+06 
261 -0.02395 8.83759e-05 2461.59 279.442 5.14274 5.23007 -424.135 -628.004 4.4564e+06 
262 -0.02385 8.83777e-05 2461.55 279.629 5.1463 5.23653 -436.564 -646.91 4.5435e+06 
263 -0.02375 8.8378e-05 2461.53 279.841 5.15022 5.24348 -450.729 -667.797 4.641e+06 
264 -0.02365 8.83795e-05 2461.49 280.037 5.15391 5.24966 -463.969 -686.657 4.73373e+06 
265 -0.02355 8.83804e-05 2461.47 280.242 5.15773 5.25613 -477.444 -705.897 4.82753e+06 
266 -0.02345 8.83811e-05 2461.44 280.44 5.16142 5.26261 -490.892 -725.737 4.92293e+06 
268 -0.02325 8.83841e-05 2461.37 280.857 5.16928 5.27645 -519.002 -768.125 5.12476e+06 
269 -0.02315 8.83847e-05 2461.34 281.073 5.17328 5.28373 -533.273 -790.169 5.22723e+06 
270 -0.02305 8.83852e-05 2461.3 281.287 5.17725 5.29071 -547.392 -811.228 5.32585e+06 
271 -0.02295 8.83876e-05 2461.27 281.513 5.18155 5.29842 -562.632 -834.721 5.43644e+06 
272 -0.02285 8.83882e-05 2461.23 281.778 5.18647 5.307 -580.292 -860.227 5.5567e+06 
273 -0.02275 8.83901e-05 2461.19 282.021 5.19105 5.31487 -596.818 -884.51 5.67495e+06 
274 -0.02265 8.83916e-05 2461.16 282.275 5.19582 5.32314 -613.926 -909.581 5.79579e+06 
275 -0.02255 8.83925e-05 2461.11 282.539 5.20073 5.33186 -631.507 -936.013 5.92058e+06 
251 -0.02495 8.8367e-05 2461.82 277.877 5.11344 5.17885 -319.144 -472.527 3.71205e+06 
252 -0.02485 8.83686e-05 2461.8 278.018 5.11611 5.18356 -328.382 -486.69 3.77772e+06 
253 -0.02475 8.83687e-05 2461.77 278.178 5.11908 5.18899 -339.6 -503.072 3.85544e+06 
254 -0.02465 8.83703e-05 2461.76 278.328 5.12192 5.19375 -349.311 -517.091 3.9235e+06 
255 -0.02455 8.83711e-05 2461.73 278.476 5.12469 5.19848 -359.357 -531.734 3.99529e+06 
256 -0.02445 8.83721e-05 2461.71 278.633 5.12763 5.20373 -369.895 -547.517 4.06924e+06 
300 -0.02005 8.84481e-05 2459.58 292.569 5.38873 5.6642 -1303.12 -1936.93 1.06317e+07 
289 -0.02115 8.84186e-05 2460.39 287.299 5.2899 5.48964 -950.494 -1410.98 8.15644e+06 
290 -0.02105 8.84211e-05 2460.34 287.695 5.29734 5.50237 -976.412 -1449.38 8.33798e+06 
291 -0.02095 8.84233e-05 2460.27 288.098 5.30489 5.51566 -1003.67 -1490.13 8.53309e+06 
292 -0.02085 8.84255e-05 2460.2 288.558 5.3135 5.53122 -1034.64 -1536.94 8.75039e+06 
293 -0.02075 8.8428e-05 2460.13 288.994 5.32167 5.54552 -1063.78 -1580.51 8.95757e+06 
294 -0.02065 8.84303e-05 2460.06 289.491 5.33097 5.56202 -1096.74 -1628.73 9.1816e+06 
295 -0.02055 8.84332e-05 2459.99 289.955 5.33968 5.57762 -1127.94 -1676.31 9.40419e+06 
296 -0.02045 8.84361e-05 2459.92 290.405 5.34815 5.59266 -1158.29 -1722.24 9.62194e+06 
297 -0.02035 8.84389e-05 2459.84 290.904 5.3575 5.60916 -1191.65 -1772.16 9.8578e+06 
298 -0.02025 8.84412e-05 2459.76 291.447 5.36765 5.62739 -1227.95 -1826.31 1.01076e+07 
299 -0.02015 8.84447e-05 2459.68 291.984 5.37774 5.64488 -1263.45 -1878.75 1.03558e+07 
276 -0.02245 8.83939e-05 2461.07 282.84 5.20634 5.34179 -651.509 -965.127 6.05638e+06 
277 -0.02235 8.83958e-05 2461.03 283.107 5.21137 5.35094 -669.655 -993.313 6.18722e+06 
278 -0.02225 8.83971e-05 2460.99 283.392 5.2167 5.36024 -688.642 -1021.54 6.32075e+06 
279 -0.02215 8.83994e-05 2460.94 283.707 5.22262 5.37063 -709.45 -1052.32 6.46598e+06 
280 -0.02205 8.84008e-05 2460.89 284.036 5.22877 5.38158 -731.984 -1085.47 6.62247e+06 
281 -0.02195 8.84026e-05 2460.84 284.364 5.23491 5.3921 -753.56 -1116.83 6.77204e+06 
282 -0.02185 8.84044e-05 2460.79 284.655 5.24037 5.40215 -773.051 -1147.59 6.914e+06 
283 -0.02175 8.84057e-05 2460.75 284.954 5.24596 5.41201 -793.363 -1178.6 7.06424e+06 
284 -0.02165 8.84086e-05 2460.69 285.332 5.25309 5.42431 -818.414 -1214.42 7.23227e+06 
285 -0.02155 8.84093e-05 2460.64 285.696 5.25983 5.43566 -842.593 -1249.16 7.40211e+06 
286 -0.02145 8.84122e-05 2460.58 286.091 5.26727 5.44914 -869.537 -1289.75 7.59197e+06 
287 -0.02135 8.84141e-05 2460.52 286.444 5.2739 5.46064 -892.927 -1324.33 7.75504e+06 
288 -0.02125 8.84171e-05 2460.46 286.887 5.28222 5.47563 -922.532 -1368.5 7.95802e+06 
301 -0.01995 8.84514e-05 2459.5 293.144 5.39953 5.68312 -1341.27 -1993.19 1.08965e+07 
321 -0.01795 8.85407e-05 2457.01 309.382 5.70438 6.2242 -2426.82 -3610.8 1.84491e+07 
322 -0.01785 8.85464e-05 2456.84 310.478 5.72495 6.26075 -2499.79 -3720.19 1.89573e+07 
323 -0.01775 8.85523e-05 2456.68 311.531 5.74474 6.29566 -2570.33 -3825.98 1.94552e+07 
324 -0.01765 8.85604e-05 2456.49 312.765 5.76803 6.3373 -2652.73 -3948.31 2.00199e+07 
325 -0.01755 8.85664e-05 2456.3 313.998 5.79116 6.37827 -2735.44 -4070.75 2.05916e+07 
302 -0.01985 8.84551e-05 2459.4 293.8 5.41183 5.70556 -1385.35 -2059.33 1.11986e+07 
303 -0.01975 8.84576e-05 2459.31 294.378 5.42263 5.7247 -1423.91 -2117.69 1.1472e+07 
304 -0.01965 8.84613e-05 2459.21 295.046 5.43517 5.7463 -1468.76 -2182.32 1.17817e+07 
305 -0.01955 8.8465e-05 2459.11 295.676 5.447 5.76732 -1510.68 -2245.36 1.20766e+07 
306 -0.01945 8.84692e-05 2459 296.372 5.46008 5.79078 -1557.19 -2314.86 1.23969e+07 
307 -0.01935 8.84723e-05 2458.9 297.049 5.47274 5.81266 -1602.67 -2381.91 1.27203e+07 
308 -0.01925 8.8476e-05 2458.79 297.794 5.48669 5.83732 -1652.15 -2454.85 1.30589e+07 
309 -0.01915 8.84807e-05 2458.68 298.526 5.50047 5.86141 -1701.65 -2528.12 1.34089e+07 
310 -0.01905 8.84847e-05 2458.57 299.268 5.5144 5.88548 -1750.46 -2599.77 1.37468e+07 
311 -0.01895 8.84886e-05 2458.44 300.068 5.52939 5.9129 -1804.79 -2682.37 1.41276e+07 
312 -0.01885 8.84935e-05 2458.32 300.834 5.54381 5.9388 -1855.38 -2759.4 1.4481e+07 
313 -0.01875 8.84983e-05 2458.19 301.644 5.55903 5.96673 -1909.94 -2843.04 1.48655e+07 
314 -0.01865 8.8502e-05 2458.06 302.534 5.57567 5.99539 -1969.26 -2929.13 1.52745e+07 
315 -0.01855 8.85078e-05 2457.92 303.495 5.59374 6.027 -2033.34 -3022.12 1.57097e+07 
316 -0.01845 8.85131e-05 2457.79 304.344 5.60973 6.05499 -2089.95 -3106.81 1.61118e+07 
317 -0.01835 8.85188e-05 2457.64 305.31 5.6279 6.08764 -2155.41 -3204.83 1.65681e+07 
318 -0.01825 8.85227e-05 2457.5 306.234 5.64518 6.11839 -2216.43 -3296.64 1.69948e+07 
319 -0.01815 8.85291e-05 2457.34 307.236 5.66407 6.15203 -2283.62 -3397.16 1.74621e+07 
320 -0.01805 8.85349e-05 2457.18 308.316 5.68435 6.18819 -2355.45 -3503.47 1.79533e+07 
334 -0.01665 8.86372e-05 2454.34 326.725 6.03071 6.80381 -3584.53 -5334.49 2.64615e+07 
326 -0.01745 8.85737e-05 2456.1 315.245 5.81464 6.41978 -2818.03 -4193.09 2.11596e+07 
327 -0.01735 8.8579e-05 2455.92 316.479 5.83776 6.46071 -2900.97 -4317.12 2.17422e+07 
328 -0.01725 8.85879e-05 2455.7 317.881 5.8642 6.50766 -2994.48 -4455.06 2.2381e+07 
329 -0.01715 8.85967e-05 2455.5 319.245 5.88995 6.55325 -3085.58 -4589.73 2.30076e+07 
330 -0.01705 8.86028e-05 2455.28 320.651 5.91629 6.59935 -3179.7 -4728.14 2.36611e+07 
331 -0.01695 8.8611e-05 2455.05 322.139 5.9443 6.64976 -3278.81 -4876.97 2.4343e+07 
332 -0.01685 8.86205e-05 2454.81 323.709 5.97392 6.70194 -3383.04 -5029.57 2.50517e+07 
333 -0.01675 8.86279e-05 2454.58 325.176 6.00149 6.75152 -3481.48 -5179.33 2.57464e+07 
335 -0.01655 8.86463e-05 2454.07 328.466 6.06346 6.86251 -3700.83 -5506.97 2.72567e+07 
336 -0.01645 8.86553e-05 2453.82 330.091 6.09409 6.91574 -3809.36 -5666.69 2.80142e+07 
337 -0.01635 8.86648e-05 2453.54 331.863 6.12746 6.97615 -3927.28 -5844.39 2.88219e+07 
338 -0.01625 8.86762e-05 2453.26 333.715 6.16244 7.03908 -4051.31 -6030.32 2.96774e+07 
339 -0.01615 8.86871e-05 2452.98 335.548 6.19706 7.10003 -4173.21 -6211.13 3.05198e+07 
340 -0.01605 8.86961e-05 2452.68 337.43 6.23244 7.16295 -4298.39 -6398.18 3.13853e+07 
341 -0.01595 8.87082e-05 2452.37 339.456 6.27071 7.23126 -4433.36 -6598.49 3.23091e+07 
342 -0.01585 8.8719e-05 2452.06 341.456 6.30842 7.29889 -4567.48 -6800.51 3.32446e+07 
343 -0.01575 8.87315e-05 2451.74 343.554 6.34809 7.3692 -4706.32 -7006.56 3.41944e+07 