ITEM: TIMESTEP
20000
ITEM: NUMBER OF CELLS
800
ITEM: BOX BOUNDS os pp pp
-0.05 0.03
-0.001 0.001
-0.001 0.001
ITEM: CELLS id f_1[1] f_1[2] f_1[3] f_1[4] f_1[5] f_1[6] f_1[7] f_1[8] f_1[9] 
1 -0.04995 8.83412e-05 2462.55 273.113 5.0243 5.02322 -0.434923 -0.730244 1.43025e+06 
2 -0.04985 8.83418e-05 2462.54 273.115 5.02437 5.02339 -0.390656 -0.69831 1.43014e+06 
3 -0.04975 8.83413e-05 2462.55 273.117 5.02437 5.02337 -0.495807 -0.816484 1.43073e+06 
4 -0.04965 8.83415e-05 2462.54 273.116 5.02437 5.02334 -0.472822 -0.787868 1.43047e+06 
5 -0.04955 8.83416e-05 2462.55 273.116 5.02439 5.02347 -0.487138 -0.783664 1.43084e+06 
6 -0.04945 8.83416e-05 2462.54 273.114 5.02435 5.02337 -0.542837 -0.864442 1.43072e+06 
7 -0.04935 8.83422e-05 2462.55 273.119 5.02446 5.02353 -0.517403 -0.819588 1.43099e+06 
8 -0.04925 8.83412e-05 2462.55 273.116 5.02435 5.02338 -0.536699 -0.88604 1.43081e+06 
9 -0.04915 8.83414e-05 2462.55 273.117 5.02439 5.02354 -0.513119 -0.886667 1.43104e+06 
10 -0.04905 8.83416e-05 2462.54 273.114 5.02434 5.02346 -0.515026 -0.914178 1.4308e+06 
11 -0.04895 8.83422e-05 2462.55 273.118 5.02444 5.02363 -0.578046 -1.01435 1.43136e+06 
12 -0.04885 8.83416e-05 2462.54 273.117 5.0244 5.02355 -0.604673 -1.0667 1.43134e+06 
13 -0.04875 8.83414e-05 2462.55 273.118 5.02441 5.02364 -0.591438 -1.05713 1.43134e+06 
14 -0.04865 8.83419e-05 2462.55 273.12 5.02447 5.02373 -0.624963 -1.12593 1.43166e+06 
15 -0.04855 8.83418e-05 2462.54 273.116 5.02439 5.02358 -0.595563 -1.08138 1.43143e+06 
16 -0.04845 8.8341e-05 2462.54 273.116 5.02434 5.02349 -0.592522 -1.06827 1.43137e+06 
17 -0.04835 8.83419e-05 2462.55 273.119 5.02445 5.02381 -0.615995 -1.10724 1.43181e+06 
18 -0.04825 8.83416e-05 2462.55 273.118 5.02441 5.02363 -0.646388 -1.12928 1.43166e+06 
19 -0.04815 8.83412e-05 2462.54 273.117 5.02438 5.0236 -0.671196 -1.15134 1.43197e+06 
20 -0.04805 8.8342e-05 2462.54 273.122 5.0245 5.02382 -0.668141 -1.14596 1.43203e+06 
21 -0.04795 8.83419e-05 2462.54 273.121 5.02448 5.02385 -0.766005 -1.30103 1.43265e+06 
22 -0.04785 8.83409e-05 2462.54 273.117 5.02436 5.02372 -0.752626 -1.27488 1.43237e+06 
23 -0.04775 8.8342e-05 2462.54 273.12 5.02447 5.02387 -0.738023 -1.25311 1.43242e+06 
24 -0.04765 8.8341e-05 2462.54 273.122 5.02446 5.02378 -0.774698 -1.29041 1.43272e+06 
25 -0.04755 8.83416e-05 2462.54 273.124 5.02453 5.02399 -0.864915 -1.42561 1.4334e+06 
34 -0.04665 8.83423e-05 2462.54 273.127 5.02461 5.0243 -1.05672 -1.69446 1.43486e+06 
33 -0.04675 8.83413e-05 2462.54 273.123 5.0245 5.0242 -1.04499 -1.70862 1.43482e+06 
35 -0.04655 8.83413e-05 2462.54 273.125 5.02453 5.02413 -1.0918 -1.7402 1.43507e+06 
36 -0.04645 8.83422e-05 2462.54 273.127 5.02461 5.02424 -1.13042 -1.80965 1.43534e+06 
37 -0.04635 8.83415e-05 2462.54 273.127 5.02457 5.02424 -1.15759 -1.78473 1.43543e+06 
38 -0.04625 8.83408e-05 2462.54 273.126 5.02452 5.02418 -1.18178 -1.87648 1.43577e+06 
39 -0.04615 8.83421e-05 2462.54 273.127 5.02461 5.02426 -1.27845 -1.99764 1.4362e+06 
40 -0.04605 8.83422e-05 2462.54 273.13 5.02466 5.02432 -1.33233 -2.07048 1.43658e+06 
41 -0.04595 8.83421e-05 2462.54 273.128 5.02463 5.02426 -1.29313 -2.03961 1.43652e+06 
42 -0.04585 8.83411e-05 2462.54 273.128 5.02456 5.02417 -1.32502 -2.07448 1.43645e+06 
43 -0.04575 8.83413e-05 2462.54 273.132 5.02466 5.02425 -1.47777 -2.25881 1.43774e+06 
44 -0.04565 8.83424e-05 2462.54 273.131 5.0247 5.02436 -1.42796 -2.20526 1.43723e+06 
45 -0.04555 8.83418e-05 2462.54 273.132 5.02469 5.02425 -1.53571 -2.34189 1.43783e+06 
46 -0.04545 8.83426e-05 2462.54 273.129 5.02468 5.02435 -1.49424 -2.32651 1.43779e+06 
47 -0.04535 8.83417e-05 2462.54 273.132 5.02467 5.02428 -1.53589 -2.35877 1.43806e+06 
48 -0.04525 8.83414e-05 2462.54 273.133 5.02467 5.02431 -1.57169 -2.40585 1.43826e+06 
49 -0.04515 8.83416e-05 2462.54 273.134 5.02472 5.02436 -1.60258 -2.46649 1.4386e+06 
50 -0.04505 8.83411e-05 2462.54 273.132 5.02463 5.02429 -1.613 -2.4746 1.43865e+06 
26 -0.04745 8.83419e-05 2462.54 273.121 5.02449 5.02392 -0.889719 -1.44986 1.43336e+06 
27 -0.04735 8.83424e-05 2462.55 273.123 5.02455 5.02405 -0.918614 -1.46005 1.43356e+06 
28 -0.04725 8.83415e-05 2462.54 273.123 5.02449 5.02403 -0.940936 -1.53139 1.43371e+06 
29 -0.04715 8.83411e-05 2462.54 273.122 5.02445 5.02396 -0.934765 -1.54719 1.43369e+06 
30 -0.04705 8.83418e-05 2462.54 273.125 5.02454 5.02414 -0.933743 -1.55059 1.43396e+06 
31 -0.04695 8.83425e-05 2462.54 273.122 5.02453 5.02407 -0.898234 -1.46297 1.43369e+06 
32 -0.04685 8.83411e-05 2462.54 273.125 5.02451 5.02412 -1.00972 -1.61001 1.43432e+06 
67 -0.04335 8.83415e-05 2462.54 273.145 5.0249 5.02478 -2.42493 -3.63527 1.44491e+06 
65 -0.04355 8.83416e-05 2462.54 273.144 5.02489 5.02485 -2.29606 -3.4763 1.444e+06 
66 -0.04345 8.83422e-05 2462.54 273.144 5.02493 5.02482 -2.30463 -3.489 1.44412e+06 
68 -0.04325 8.83419e-05 2462.54 273.147 5.02497 5.0249 -2.42232 -3.65441 1.44503e+06 
69 -0.04315 8.83418e-05 2462.54 273.146 5.02495 5.02484 -2.48767 -3.73683 1.44543e+06 
70 -0.04305 8.83416e-05 2462.54 273.149 5.02499 5.0249 -2.63066 -3.91137 1.44638e+06 
71 -0.04295 8.83421e-05 2462.54 273.15 5.02503 5.02498 -2.61664 -3.92165 1.44617e+06 
72 -0.04285 8.83415e-05 2462.54 273.151 5.02501 5.02492 -2.78775 -4.06495 1.44736e+06 
73 -0.04275 8.83424e-05 2462.54 273.151 5.02507 5.02507 -2.89219 -4.32714 1.44799e+06 
74 -0.04265 8.83418e-05 2462.54 273.155 5.02511 5.02504 -2.89721 -4.26726 1.44826e+06 
75 -0.04255 8.83417e-05 2462.54 273.155 5.0251 5.02512 -3.06372 -4.47239 1.44936e+06 
51 -0.04495 8.83416e-05 2462.54 273.137 5.02477 5.02446 -1.67493 -2.55291 1.43905e+06 
52 -0.04485 8.83418e-05 2462.54 273.136 5.02476 5.02447 -1.80148 -2.69288 1.43992e+06 
53 -0.04475 8.83417e-05 2462.54 273.137 5.02477 5.02449 -1.78873 -2.70939 1.43997e+06 
54 -0.04465 8.8342e-05 2462.54 273.135 5.02475 5.02449 -1.8029 -2.71381 1.43987e+06 
55 -0.04455 8.83416e-05 2462.54 273.136 5.02474 5.02449 -1.77399 -2.68013 1.44022e+06 
56 -0.04445 8.8342e-05 2462.54 273.139 5.02482 5.02451 -1.9637 -2.8994 1.44105e+06 
57 -0.04435 8.83418e-05 2462.54 273.139 5.0248 5.02451 -1.93663 -2.91714 1.44105e+06 
58 -0.04425 8.83422e-05 2462.54 273.142 5.02489 5.02469 -2.07512 -3.11138 1.44182e+06 
59 -0.04415 8.83414e-05 2462.54 273.139 5.02478 5.02451 -2.03156 -3.09387 1.4417e+06 
60 -0.04405 8.83417e-05 2462.54 273.14 5.02483 5.02463 -2.02791 -3.08754 1.44177e+06 
61 -0.04395 8.8342e-05 2462.54 273.142 5.02488 5.02472 -2.02533 -3.05771 1.44187e+06 
62 -0.04385 8.83415e-05 2462.54 273.141 5.02484 5.02466 -2.23885 -3.3323 1.44312e+06 
63 -0.04375 8.83423e-05 2462.54 273.143 5.02492 5.02479 -2.22678 -3.38663 1.44339e+06 
64 -0.04365 8.83416e-05 2462.54 273.145 5.02492 5.0248 -2.3944 -3.57326 1.44417e+06 
100 -0.04005 8.83414e-05 2462.53 273.197 5.02585 5.02642 -5.7121 -8.36996 1.46832e+06 
97 -0.04035 8.83416e-05 2462.53 273.189 5.02571 5.02617 -5.02962 -7.45888 1.46408e+06 
98 -0.04025 8.83424e-05 2462.53 273.187 5.02573 5.02619 -5.06279 -7.60149 1.46452e+06 
99 -0.04015 8.83422e-05 2462.53 273.191 5.02579 5.0263 -5.29317 -7.8944 1.46585e+06 
76 -0.04245 8.83416e-05 2462.54 273.156 5.02512 5.02512 -3.08179 -4.48515 1.44931e+06 
77 -0.04235 8.83419e-05 2462.54 273.157 5.02515 5.02519 -3.17609 -4.66646 1.45024e+06 
78 -0.04225 8.83419e-05 2462.54 273.158 5.02517 5.02527 -3.1608 -4.5849 1.45019e+06 
79 -0.04215 8.83419e-05 2462.53 273.158 5.02516 5.02522 -3.22569 -4.72221 1.45078e+06 
80 -0.04205 8.83424e-05 2462.54 273.16 5.02523 5.02524 -3.32287 -4.8423 1.45136e+06 
81 -0.04195 8.83421e-05 2462.54 273.16 5.02522 5.02525 -3.32133 -4.91857 1.45176e+06 
82 -0.04185 8.83421e-05 2462.54 273.16 5.02522 5.02534 -3.30566 -4.92525 1.45149e+06 
83 -0.04175 8.83421e-05 2462.54 273.159 5.02521 5.02527 -3.37471 -5.02532 1.45203e+06 
84 -0.04165 8.83415e-05 2462.54 273.165 5.02527 5.0254 -3.52911 -5.23565 1.45369e+06 
85 -0.04155 8.83417e-05 2462.54 273.167 5.02532 5.02542 -3.65924 -5.38431 1.4538e+06 
86 -0.04145 8.83422e-05 2462.54 273.167 5.02535 5.02553 -3.85532 -5.63703 1.45535e+06 
87 -0.04135 8.83419e-05 2462.54 273.171 5.02542 5.02567 -4.1091 -5.90319 1.4567e+06 
88 -0.04125 8.83425e-05 2462.54 273.171 5.02544 5.02569 -3.9919 -5.8705 1.45661e+06 
89 -0.04115 8.83419e-05 2462.53 273.169 5.02537 5.02555 -4.07237 -5.98388 1.45695e+06 
90 -0.04105 8.83418e-05 2462.54 273.174 5.02546 5.02571 -4.19753 -6.12921 1.45779e+06 
91 -0.04095 8.83421e-05 2462.53 273.173 5.02545 5.02572 -4.11909 -6.05865 1.45737e+06 
92 -0.04085 8.83416e-05 2462.54 273.176 5.02547 5.02573 -4.39573 -6.4961 1.45938e+06 
93 -0.04075 8.83429e-05 2462.53 273.18 5.02563 5.02605 -4.69139 -6.85574 1.46128e+06 
94 -0.04065 8.83421e-05 2462.53 273.181 5.02561 5.02593 -4.65528 -6.86987 1.46109e+06 
95 -0.04055 8.83423e-05 2462.53 273.183 5.02565 5.02614 -4.8325 -7.17791 1.46239e+06 
96 -0.04045 8.83416e-05 2462.53 273.182 5.0256 5.026 -4.90034 -7.29416 1.46304e+06 
101 -0.03995 8.83432e-05 2462.53 273.202 5.02605 5.02678 -6.01357 -8.76924 1.47061e+06 
102 -0.03985 8.83414e-05 2462.53 273.202 5.02595 5.02667 -6.17605 -8.97737 1.47135e+06 
103 -0.03975 8.83415e-05 2462.53 273.207 5.02604 5.02678 -6.34986 -9.20663 1.47291e+06 
104 -0.03965 8.83432e-05 2462.53 273.209 5.02618 5.027 -6.34874 -9.15348 1.473e+06 
105 -0.03955 8.83417e-05 2462.53 273.206 5.02604 5.02679 -6.46248 -9.37743 1.47404e+06 
106 -0.03945 8.83419e-05 2462.53 273.213 5.02619 5.02705 -6.7943 -9.72911 1.47611e+06 
107 -0.03935 8.83417e-05 2462.53 273.213 5.02616 5.02699 -6.77778 -9.81229 1.47594e+06 
108 -0.03925 8.83422e-05 2462.53 273.216 5.02625 5.02707 -6.92791 -10.032 1.47736e+06 
109 -0.03915 8.83424e-05 2462.53 273.217 5.02628 5.0271 -7.03257 -10.2087 1.47824e+06 
110 -0.03905 8.83423e-05 2462.53 273.219 5.02631 5.02727 -7.2188 -10.5196 1.47974e+06 
111 -0.03895 8.83416e-05 2462.53 273.225 5.02637 5.02731 -7.54989 -10.9292 1.48183e+06 
112 -0.03885 8.83421e-05 2462.53 273.224 5.0264 5.02738 -7.46739 -10.924 1.48174e+06 
113 -0.03875 8.83422e-05 2462.53 273.232 5.02654 5.02763 -8.00777 -11.6321 1.48533e+06 
114 -0.03865 8.83418e-05 2462.53 273.235 5.02657 5.02772 -8.33709 -12.0755 1.48721e+06 
115 -0.03855 8.8343e-05 2462.52 273.239 5.02672 5.02787 -8.37405 -12.2386 1.48783e+06 
116 -0.03845 8.83423e-05 2462.53 273.239 5.02667 5.02785 -8.41352 -12.2961 1.48834e+06 
117 -0.03835 8.83424e-05 2462.52 273.24 5.02671 5.02786 -8.67624 -12.7009 1.49017e+06 
118 -0.03825 8.83432e-05 2462.53 273.247 5.02688 5.02825 -8.95463 -13.0374 1.49227e+06 
119 -0.03815 8.83419e-05 2462.53 273.25 5.02686 5.0282 -9.25653 -13.4662 1.49441e+06 
120 -0.03805 8.83425e-05 2462.52 273.259 5.02705 5.02856 -9.8473 -14.2576 1.49779e+06 
121 -0.03795 8.8343e-05 2462.52 273.267 5.02724 5.02882 -10.3095 -14.7442 1.50063e+06 
122 -0.03785 8.83426e-05 2462.52 273.263 5.02714 5.02874 -10.1309 -14.8025 1.50088e+06 
123 -0.03775 8.83423e-05 2462.52 273.266 5.02718 5.02885 -10.2189 -14.9515 1.50171e+06 
124 -0.03765 8.83431e-05 2462.52 273.272 5.02734 5.02911 -10.5873 -15.4588 1.50416e+06 
125 -0.03755 8.83417e-05 2462.52 273.28 5.0274 5.02924 -11.2703 -16.3623 1.50817e+06 
134 -0.03665 8.83421e-05 2462.51 273.315 5.02807 5.03049 -13.5556 -19.9587 1.52574e+06 
129 -0.03715 8.83422e-05 2462.52 273.294 5.02768 5.02977 -12.0588 -17.6965 1.51491e+06 
130 -0.03705 8.83418e-05 2462.51 273.296 5.02771 5.02984 -12.388 -18.155 1.51738e+06 
131 -0.03695 8.8343e-05 2462.52 273.302 5.02788 5.03003 -12.6648 -18.6014 1.51969e+06 
132 -0.03685 8.83426e-05 2462.51 273.306 5.02793 5.03023 -12.8977 -18.9902 1.5212e+06 
133 -0.03675 8.83426e-05 2462.51 273.317 5.02813 5.03058 -13.5959 -19.8725 1.5258e+06 
135 -0.03655 8.83431e-05 2462.51 273.318 5.02818 5.03067 -13.7506 -20.3213 1.52802e+06 
136 -0.03645 8.83424e-05 2462.51 273.322 5.0282 5.03062 -14.091 -20.7736 1.53096e+06 
137 -0.03635 8.83432e-05 2462.51 273.327 5.02835 5.03085 -14.2636 -21.0709 1.53227e+06 
138 -0.03625 8.83426e-05 2462.51 273.327 5.02832 5.03087 -14.3467 -21.3041 1.53306e+06 
139 -0.03615 8.83425e-05 2462.51 273.337 5.02849 5.0311 -14.9778 -22.1155 1.53722e+06 
140 -0.03605 8.8343e-05 2462.51 273.343 5.02864 5.03129 -15.3978 -22.8536 1.5408e+06 
141 -0.03595 8.8343e-05 2462.51 273.351 5.02877 5.03165 -15.9295 -23.6684 1.54411e+06 
142 -0.03585 8.83429e-05 2462.5 273.355 5.02884 5.03177 -16.217 -24.1039 1.54596e+06 
143 -0.03575 8.83425e-05 2462.51 273.368 5.02906 5.03213 -17.1464 -25.4732 1.55274e+06 
144 -0.03565 8.83434e-05 2462.51 273.369 5.02914 5.03215 -17.0567 -25.2317 1.55207e+06 
145 -0.03555 8.83428e-05 2462.51 273.374 5.02919 5.03226 -17.5149 -25.9475 1.55597e+06 
146 -0.03545 8.83432e-05 2462.5 273.383 5.02938 5.03258 -17.9673 -26.64 1.55926e+06 
147 -0.03535 8.83419e-05 2462.5 273.391 5.02945 5.03273 -18.7577 -27.6245 1.56417e+06 
148 -0.03525 8.83432e-05 2462.5 273.404 5.02977 5.03323 -19.4231 -28.5212 1.56875e+06 
149 -0.03515 8.83428e-05 2462.5 273.413 5.02991 5.03347 -19.9926 -29.3574 1.57247e+06 
150 -0.03505 8.83428e-05 2462.5 273.423 5.03008 5.03377 -20.7491 -30.4552 1.57794e+06 
126 -0.03745 8.8343e-05 2462.52 273.281 5.02749 5.0294 -11.3257 -16.4815 1.50911e+06 
127 -0.03735 8.83435e-05 2462.52 273.285 5.0276 5.02956 -11.4921 -16.8299 1.51082e+06 
128 -0.03725 8.83426e-05 2462.52 273.29 5.02764 5.02969 -11.8699 -17.5109 1.51345e+06 
167 -0.03335 8.83443e-05 2462.47 273.587 5.03319 5.03923 -31.86 -47.2912 1.65978e+06 
161 -0.03395 8.83438e-05 2462.49 273.514 5.03182 5.03668 -26.9616 -39.7316 1.62439e+06 
162 -0.03385 8.83437e-05 2462.48 273.53 5.0321 5.03715 -27.8789 -41.0253 1.63055e+06 
163 -0.03375 8.83439e-05 2462.48 273.539 5.03229 5.03751 -28.5457 -42 1.63545e+06 
164 -0.03365 8.83434e-05 2462.48 273.557 5.03259 5.03797 -29.7912 -43.5774 1.64303e+06 
165 -0.03355 8.83431e-05 2462.48 273.563 5.03269 5.03823 -30.135 -44.2965 1.64672e+06 
166 -0.03345 8.8344e-05 2462.48 273.575 5.03296 5.03885 -31.0343 -45.8189 1.65398e+06 
168 -0.03325 8.83441e-05 2462.47 273.604 5.03349 5.03964 -32.6452 -48.0906 1.66439e+06 
169 -0.03315 8.8344e-05 2462.47 273.605 5.03352 5.0397 -33.1711 -49.0086 1.66969e+06 
170 -0.03305 8.83441e-05 2462.47 273.624 5.03386 5.04033 -34.248 -50.6227 1.67733e+06 
171 -0.03295 8.83445e-05 2462.47 273.642 5.03421 5.04089 -35.4874 -52.1388 1.68472e+06 
172 -0.03285 8.83449e-05 2462.46 273.661 5.0346 5.04158 -36.7766 -53.9449 1.69349e+06 
173 -0.03275 8.83441e-05 2462.46 273.668 5.03466 5.04169 -37.202 -54.8152 1.69836e+06 
174 -0.03265 8.83446e-05 2462.46 273.692 5.03515 5.04248 -38.7866 -57.0293 1.70819e+06 
175 -0.03255 8.83444e-05 2462.46 273.706 5.03539 5.04306 -39.8153 -58.7002 1.71545e+06 
151 -0.03495 8.83428e-05 2462.5 273.424 5.03012 5.0339 -20.9751 -30.8183 1.58035e+06 
152 -0.03485 8.83429e-05 2462.5 273.431 5.03025 5.03403 -21.3823 -31.504 1.58317e+06 
153 -0.03475 8.8343e-05 2462.5 273.448 5.03056 5.03463 -22.2517 -32.7891 1.58953e+06 
154 -0.03465 8.83429e-05 2462.49 273.46 5.03077 5.03492 -23.0382 -33.8023 1.59366e+06 
155 -0.03455 8.83427e-05 2462.49 273.463 5.03082 5.03513 -23.5813 -34.7467 1.59924e+06 
156 -0.03445 8.83428e-05 2462.49 273.477 5.03108 5.03554 -24.2803 -35.7565 1.60313e+06 
157 -0.03435 8.83441e-05 2462.49 273.485 5.0313 5.03584 -25.0022 -36.8462 1.60891e+06 
158 -0.03425 8.83429e-05 2462.49 273.492 5.03137 5.03595 -25.5289 -37.487 1.61253e+06 
159 -0.03415 8.83438e-05 2462.49 273.502 5.0316 5.03629 -25.9293 -38.1789 1.61662e+06 
160 -0.03405 8.83428e-05 2462.49 273.506 5.03161 5.03635 -26.3442 -38.8143 1.61956e+06 
200 -0.03005 8.83487e-05 2462.37 274.292 5.04642 5.06202 -79.013 -116.044 1.99687e+06 
193 -0.03075 8.83471e-05 2462.4 274.087 5.04255 5.0552 -65.1933 -95.6898 1.89802e+06 
194 -0.03065 8.83468e-05 2462.4 274.109 5.04293 5.05596 -66.7957 -98.2381 1.91048e+06 
195 -0.03055 8.83475e-05 2462.39 274.151 5.04375 5.05723 -69.5941 -102.022 1.9292e+06 
196 -0.03045 8.83468e-05 2462.39 274.163 5.04392 5.0576 -70.447 -103.355 1.9361e+06 
197 -0.03035 8.83477e-05 2462.38 274.198 5.04463 5.05887 -72.6771 -106.666 1.95215e+06 
198 -0.03025 8.83472e-05 2462.38 274.221 5.04503 5.05956 -74.1996 -108.981 1.96208e+06 
199 -0.03015 8.83469e-05 2462.38 274.263 5.04579 5.06077 -77.0598 -112.787 1.98355e+06 
176 -0.03245 8.83452e-05 2462.45 273.723 5.03576 5.04366 -40.9343 -60.3549 1.72317e+06 
177 -0.03235 8.83453e-05 2462.45 273.748 5.03622 5.04434 -42.5485 -62.4263 1.73395e+06 
178 -0.03225 8.83446e-05 2462.45 273.762 5.03644 5.04471 -43.6011 -63.983 1.7422e+06 
179 -0.03215 8.83452e-05 2462.45 273.777 5.03674 5.04514 -44.5496 -65.2616 1.74935e+06 
180 -0.03205 8.83453e-05 2462.44 273.795 5.03708 5.04568 -45.6297 -66.754 1.75691e+06 
181 -0.03195 8.83447e-05 2462.44 273.815 5.03742 5.04638 -47.1891 -69.2359 1.76863e+06 
182 -0.03185 8.83451e-05 2462.44 273.834 5.03778 5.04695 -48.435 -70.862 1.77725e+06 
183 -0.03175 8.83455e-05 2462.44 273.853 5.03815 5.04749 -49.5939 -72.5394 1.78537e+06 
184 -0.03165 8.83463e-05 2462.43 273.879 5.03868 5.04847 -51.3028 -75.1679 1.79769e+06 
185 -0.03155 8.83457e-05 2462.43 273.903 5.03908 5.04932 -53.0124 -77.9706 1.80989e+06 
186 -0.03145 8.83467e-05 2462.42 273.926 5.03956 5.05019 -54.5284 -80.2668 1.82004e+06 
187 -0.03135 8.83459e-05 2462.43 273.94 5.03978 5.05052 -55.3371 -81.3396 1.82723e+06 
188 -0.03125 8.83465e-05 2462.42 273.973 5.04042 5.05163 -57.719 -84.7107 1.84292e+06 
189 -0.03115 8.83468e-05 2462.42 273.994 5.04082 5.0522 -58.987 -86.4124 1.85236e+06 
190 -0.03105 8.83465e-05 2462.41 274.021 5.04129 5.05295 -60.8683 -88.8209 1.86543e+06 
191 -0.03095 8.83457e-05 2462.41 274.048 5.04176 5.05382 -62.7973 -91.6095 1.87858e+06 
192 -0.03085 8.83469e-05 2462.4 274.077 5.04236 5.05471 -64.6561 -94.2376 1.89215e+06 
201 -0.02995 8.83474e-05 2462.37 274.32 5.04685 5.06274 -80.9842 -119.062 2.01226e+06 
225 -0.02755 8.83542e-05 2462.2 275.44 5.06785 5.09962 -155.994 -230.759 2.54921e+06 
202 -0.02985 8.83487e-05 2462.36 274.355 5.04758 5.06423 -83.2885 -122.706 2.02815e+06 
203 -0.02975 8.83482e-05 2462.35 274.395 5.04828 5.0653 -85.9107 -126.411 2.04636e+06 
204 -0.02965 8.83487e-05 2462.35 274.429 5.04894 5.06651 -88.0642 -129.791 2.06235e+06 
205 -0.02955 8.83494e-05 2462.34 274.465 5.04963 5.06772 -90.5621 -133.409 2.08014e+06 
206 -0.02945 8.83484e-05 2462.34 274.505 5.05032 5.06897 -93.4988 -137.383 2.09961e+06 
207 -0.02935 8.83492e-05 2462.33 274.538 5.05097 5.06994 -95.6112 -140.313 2.11637e+06 
208 -0.02925 8.83494e-05 2462.33 274.581 5.05177 5.07123 -98.1702 -144.037 2.13458e+06 
209 -0.02915 8.83495e-05 2462.32 274.612 5.05235 5.07248 -100.634 -148.02 2.15162e+06 
210 -0.02905 8.83493e-05 2462.32 274.657 5.05317 5.07381 -103.367 -152.123 2.17282e+06 
211 -0.02895 8.83505e-05 2462.31 274.697 5.05398 5.07518 -106.036 -156.035 2.19138e+06 
212 -0.02885 8.83511e-05 2462.3 274.736 5.05472 5.07655 -108.686 -160.26 2.21184e+06 
213 -0.02875 8.83501e-05 2462.29 274.791 5.05568 5.07835 -112.523 -165.798 2.23681e+06 
214 -0.02865 8.83505e-05 2462.29 274.833 5.05647 5.07957 -115.274 -169.879 2.25803e+06 
215 -0.02855 8.83516e-05 2462.28 274.875 5.0573 5.08132 -118.074 -174.686 2.27884e+06 
216 -0.02845 8.83503e-05 2462.28 274.917 5.058 5.08234 -120.825 -178.478 2.29868e+06 
217 -0.02835 8.83522e-05 2462.26 274.984 5.05934 5.08473 -125.292 -185.174 2.32947e+06 
218 -0.02825 8.83525e-05 2462.26 275.041 5.06042 5.08665 -129.286 -190.839 2.35655e+06 
219 -0.02815 8.83525e-05 2462.25 275.083 5.0612 5.08816 -132.075 -195.603 2.3783e+06 
220 -0.02805 8.83525e-05 2462.24 275.139 5.06222 5.08998 -135.622 -201.017 2.40326e+06 
221 -0.02795 8.83527e-05 2462.23 275.213 5.06359 5.09229 -140.763 -208.352 2.43936e+06 
222 -0.02785 8.83532e-05 2462.22 275.256 5.06441 5.09384 -143.622 -212.953 2.4612e+06 
223 -0.02775 8.83537e-05 2462.22 275.309 5.06541 5.09549 -147.071 -218.025 2.48653e+06 
224 -0.02765 8.8354e-05 2462.2 275.385 5.06683 5.09801 -152.339 -225.371 2.52101e+06 
234 -0.02665 8.83577e-05 2462.09 276.115 5.08048 5.12194 -201.292 -298.186 2.86978e+06 
226 -0.02745 8.83545e-05 2462.19 275.504 5.06905 5.10166 -160.251 -236.974 2.58005e+06 
227 -0.02735 8.8355e-05 2462.17 275.574 5.07035 5.10401 -164.852 -243.91 2.61082e+06 
228 -0.02725 8.83558e-05 2462.16 275.646 5.07173 5.10648 -169.834 -251.337 2.64745e+06 
229 -0.02715 8.8355e-05 2462.16 275.71 5.07287 5.10843 -174.197 -257.702 2.67884e+06 
230 -0.02705 8.83557e-05 2462.15 275.766 5.07394 5.11038 -177.882 -263.628 2.70674e+06 
231 -0.02695 8.83568e-05 2462.13 275.841 5.07537 5.11308 -182.839 -271.86 2.74424e+06 
232 -0.02685 8.83568e-05 2462.12 275.919 5.07681 5.11562 -187.98 -279.138 2.77852e+06 
233 -0.02675 8.83577e-05 2462.11 276.015 5.07864 5.11882 -194.491 -288.486 2.82238e+06 
235 -0.02655 8.83588e-05 2462.08 276.188 5.08189 5.124 -205.927 -304.429 2.90282e+06 
236 -0.02645 8.83583e-05 2462.07 276.261 5.0832 5.12653 -211.182 -312.935 2.94369e+06 
237 -0.02635 8.83591e-05 2462.06 276.346 5.0848 5.12939 -216.464 -321.132 2.98062e+06 
238 -0.02625 8.83602e-05 2462.04 276.449 5.08676 5.13277 -223.694 -331.477 3.03084e+06 
239 -0.02615 8.83608e-05 2462.03 276.548 5.08861 5.13582 -230.449 -340.823 3.07958e+06 
240 -0.02605 8.83601e-05 2462.02 276.646 5.09037 5.1388 -236.472 -349.429 3.11941e+06 
241 -0.02595 8.83618e-05 2462 276.744 5.09228 5.1422 -243.549 -360.35 3.17281e+06 
242 -0.02585 8.83612e-05 2461.99 276.841 5.09403 5.14527 -249.981 -369.645 3.21701e+06 
243 -0.02575 8.83632e-05 2461.97 276.981 5.09672 5.15012 -259.277 -383.342 3.27872e+06 
244 -0.02565 8.8363e-05 2461.95 277.068 5.09831 5.1529 -264.977 -392.359 3.32233e+06 
245 -0.02555 8.83638e-05 2461.94 277.16 5.10006 5.15596 -271.314 -401.989 3.36983e+06 
246 -0.02545 8.83643e-05 2461.92 277.293 5.10253 5.16017 -280.129 -414.603 3.43069e+06 
247 -0.02535 8.83643e-05 2461.9 277.398 5.10446 5.16361 -287.188 -425.462 3.48227e+06 
248 -0.02525 8.83651e-05 2461.89 277.516 5.10667 5.16744 -295.026 -436.798 3.53648e+06 
249 -0.02515 8.83666e-05 2461.86 277.663 5.10947 5.17229 -305.145 -451.307 3.6076e+06 
250 -0.02505 8.83671e-05 2461.84 277.796 5.11195 5.17645 -313.786 -463.833 3.6679e+06 
267 -0.02335 8.83821e-05 2461.41 280.64 5.16515 5.26965 -504.12 -747.643 5.0202e+06 
257 -0.02435 8.83723e-05 2461.69 278.825 5.13118 5.21024 -382.415 -565.958 4.15197e+06 
258 -0.02425 8.83737e-05 2461.66 278.984 5.13419 5.21551 -393.346 -582.265 4.23156e+06 
259 -0.02415 8.83745e-05 2461.64 279.154 5.13736 5.22128 -404.674 -599.475 4.31086e+06 
260 -0.02405 8.83748e-05 2461.61 279.32 5.14043 5.22659 -415.994 -616.085 4.39224e+06 
261 -0.02395 8.83763e-05 2461.59 279.483 5.14353 5.23204 -426.761 -632.408 4.4686e+06 
262 -0.02385 8.83772e-05 2461.56 279.66 5.14684 5.23773 -438.556 -649.957 4.55394e+06 
263 -0.02375 8.83786e-05 2461.53 279.881 5.15099 5.24486 -453.441 -671.226 4.65581e+06 
264 -0.02365 8.83791e-05 2461.5 280.069 5.15447 5.25079 -465.946 -689.609 4.7437e+06 
265 -0.02355 8.838e-05 2461.47 280.26 5.15804 5.25697 -478.565 -708.13 4.83401e+06 
266 -0.02345 8.83806e-05 2461.44 280.45 5.16157 5.26333 -491.732 -728.65 4.931e+06 
268 -0.02325 8.8384e-05 2461.38 280.857 5.16927 5.27691 -518.554 -768.987 5.12092e+06 
269 -0.02315 8.83847e-05 2461.35 281.076 5.17334 5.28379 -533.676 -791.024 5.22991e+06 
270 -0.02305 8.83858e-05 2461.31 281.311 5.17773 5.29153 -549.159 -814.09 5.3388e+06 
271 -0.02295 8.83875e-05 2461.27 281.546 5.18215 5.29942 -565.003 -837.657 5.44932e+06 
272 -0.02285 8.83886e-05 2461.24 281.813 5.18713 5.30825 -582.869 -863.831 5.57235e+06 
273 -0.02275 8.83903e-05 2461.2 282.063 5.19184 5.31671 -599.444 -888.85 5.68945e+06 
274 -0.02265 8.83914e-05 2461.16 282.296 5.19619 5.32455 -615.229 -913.269 5.8039e+06 
275 -0.02255 8.83927e-05 2461.12 282.535 5.20065 5.33261 -631.022 -937.645 5.91831e+06 
251 -0.02495 8.83673e-05 2461.83 277.917 5.11419 5.1806 -321.924 -476.369 3.72608e+06 
252 -0.02485 8.83685e-05 2461.79 278.073 5.11712 5.18566 -332.637 -491.658 3.79896e+06 
253 -0.02475 8.837e-05 2461.78 278.205 5.11964 5.1902 -341.063 -504.852 3.86054e+06 
254 -0.02465 8.83698e-05 2461.76 278.355 5.12239 5.19492 -351.356 -519.795 3.93315e+06 
255 -0.02455 8.83712e-05 2461.73 278.506 5.12525 5.20001 -361.175 -534.735 4.0025e+06 
256 -0.02445 8.83722e-05 2461.71 278.657 5.12809 5.20508 -371.64 -550.475 4.07848e+06 
300 -0.02005 8.84475e-05 2459.6 292.567 5.38865 5.66418 -1302.39 -1936.57 1.06286e+07 
289 -0.02115 8.8419e-05 2460.41 287.234 5.28872 5.48738 -945.449 -1404.55 8.12716e+06 
290 -0.02105 8.84209e-05 2460.35 287.629 5.29612 5.50072 -972.174 -1445.33 8.31827e+06 
291 -0.02095 8.84223e-05 2460.28 288.089 5.30466 5.516 -1002.6 -1490.78 8.5262e+06 
292 -0.02085 8.84263e-05 2460.2 288.572 5.31381 5.53243 -1035.15 -1538.97 8.75176e+06 
293 -0.02075 8.8428e-05 2460.14 289.027 5.32229 5.54667 -1065.66 -1582.34 8.96298e+06 
294 -0.02065 8.84311e-05 2460.07 289.487 5.33093 5.5621 -1096.28 -1628.5 9.17846e+06 
295 -0.02055 8.84334e-05 2459.99 289.949 5.33958 5.57775 -1127.53 -1676.31 9.40192e+06 
296 -0.02045 8.84361e-05 2459.92 290.453 5.34903 5.59391 -1160.97 -1724.81 9.63401e+06 
297 -0.02035 8.84391e-05 2459.84 290.953 5.35843 5.61049 -1194.16 -1774.25 9.86513e+06 
298 -0.02025 8.84416e-05 2459.76 291.461 5.36793 5.62766 -1228.71 -1827.08 1.01117e+07 
299 -0.02015 8.84445e-05 2459.68 292.036 5.37869 5.64675 -1266.74 -1883.54 1.03748e+07 
276 -0.02245 8.83945e-05 2461.08 282.818 5.20598 5.34178 -650.199 -965.314 6.05026e+06 
277 -0.02235 8.83962e-05 2461.04 283.139 5.21197 5.35218 -671.554 -996.245 6.19821e+06 
278 -0.02225 8.83977e-05 2460.99 283.395 5.21679 5.36085 -688.564 -1022.49 6.31974e+06 
279 -0.02215 8.83987e-05 2460.94 283.703 5.22251 5.3711 -709.181 -1053.66 6.46516e+06 
280 -0.02205 8.84008e-05 2460.9 284.014 5.22836 5.38152 -729.868 -1084.56 6.60902e+06 
281 -0.02195 8.84026e-05 2460.85 284.353 5.2347 5.39272 -752.804 -1118.36 6.77047e+06 
282 -0.02185 8.84048e-05 2460.8 284.65 5.2403 5.40211 -772.601 -1147.41 6.91297e+06 
283 -0.02175 8.84063e-05 2460.75 284.989 5.24663 5.41324 -795.273 -1180.97 7.07076e+06 
284 -0.02165 8.84082e-05 2460.7 285.358 5.25354 5.42517 -820.151 -1216.84 7.24454e+06 
285 -0.02155 8.84106e-05 2460.64 285.74 5.26072 5.43795 -845.303 -1254.31 7.41574e+06 
286 -0.02145 8.84122e-05 2460.59 286.055 5.26661 5.44846 -866.878 -1287.64 7.57671e+06 
287 -0.02135 8.84143e-05 2460.53 286.429 5.27363 5.4608 -891.777 -1325.03 7.75335e+06 
288 -0.02125 8.84165e-05 2460.47 286.831 5.28115 5.47424 -918.491 -1364.87 7.93636e+06 
301 -0.01995 8.84509e-05 2459.5 293.16 5.39979 5.68391 -1342.08 -1995.51 1.09038e+07 
321 -0.01795 8.85405e-05 2457.01 309.384 5.7044 6.22389 -2426.18 -3609.71 1.84426e+07 
322 -0.01785 8.85466e-05 2456.84 310.524 5.72581 6.26189 -2502.6 -3722.9 1.89698e+07 
323 -0.01775 8.8553e-05 2456.67 311.663 5.74722 6.29958 -2578.58 -3835.3 1.94984e+07 
324 -0.01765 8.85588e-05 2456.49 312.835 5.76922 6.33834 -2656.97 -3951.07 2.00383e+07 
325 -0.01755 8.85663e-05 2456.31 314.008 5.79135 6.37775 -2735.45 -4068.92 2.0586e+07 
302 -0.01985 8.84539e-05 2459.41 293.751 5.41085 5.7036 -1381.81 -2055.17 1.11827e+07 
303 -0.01975 8.84574e-05 2459.32 294.337 5.42187 5.72319 -1420.99 -2114.67 1.14616e+07 
304 -0.01965 8.84613e-05 2459.23 295.006 5.43444 5.74484 -1465.81 -2179.28 1.1771e+07 
305 -0.01955 8.84645e-05 2459.12 295.651 5.44651 5.76635 -1508.29 -2242.88 1.20633e+07 
306 -0.01945 8.84686e-05 2459.01 296.341 5.45947 5.78988 -1555.21 -2314.13 1.23951e+07 
307 -0.01935 8.84716e-05 2458.92 297.025 5.47225 5.81231 -1600.54 -2381.1 1.27083e+07 
308 -0.01925 8.84773e-05 2458.8 297.79 5.48671 5.83766 -1652.14 -2456.31 1.30635e+07 
309 -0.01915 8.84806e-05 2458.67 298.568 5.50125 5.86378 -1703.35 -2532.31 1.34087e+07 
310 -0.01905 8.84845e-05 2458.56 299.352 5.51593 5.88996 -1756.52 -2611.77 1.37838e+07 
311 -0.01895 8.84895e-05 2458.44 300.128 5.53054 5.91589 -1808.42 -2689.07 1.41454e+07 
312 -0.01885 8.84936e-05 2458.32 300.862 5.54434 5.94013 -1856.95 -2762.72 1.44909e+07 
313 -0.01875 8.84983e-05 2458.19 301.699 5.56005 5.96804 -1912.97 -2846.17 1.48811e+07 
314 -0.01865 8.85027e-05 2458.07 302.566 5.57631 5.99633 -1971.01 -2931.27 1.52853e+07 
315 -0.01855 8.85078e-05 2457.93 303.439 5.59272 6.02556 -2029.17 -3018.58 1.56915e+07 
316 -0.01845 8.85114e-05 2457.79 304.309 5.60898 6.05512 -2087.55 -3108.08 1.61034e+07 
317 -0.01835 8.8518e-05 2457.64 305.289 5.62746 6.08774 -2152.86 -3203.93 1.65504e+07 
318 -0.01825 8.85231e-05 2457.49 306.28 5.64606 6.1208 -2219.4 -3302.69 1.70117e+07 
319 -0.01815 8.85284e-05 2457.35 307.223 5.66378 6.15213 -2282.03 -3396.83 1.74502e+07 
320 -0.01805 8.85346e-05 2457.18 308.337 5.6847 6.18915 -2356.52 -3505.96 1.79605e+07 
334 -0.01665 8.86362e-05 2454.35 326.657 6.02939 6.80195 -3579.8 -5330.45 2.64378e+07 
326 -0.01745 8.85722e-05 2456.12 315.218 5.81403 6.41918 -2816.24 -4193.17 2.1155e+07 
327 -0.01735 8.85801e-05 2455.93 316.453 5.83735 6.45963 -2898.03 -4313.64 2.17216e+07 
328 -0.01725 8.85867e-05 2455.73 317.798 5.86259 6.50392 -2988.53 -4446.51 2.23481e+07 
329 -0.01715 8.85938e-05 2455.52 319.103 5.88713 6.54739 -3075.11 -4576.19 2.29509e+07 
330 -0.01705 8.86017e-05 2455.3 320.56 5.91453 6.59696 -3172.87 -4722.4 2.36229e+07 
331 -0.01695 8.86106e-05 2455.08 322.006 5.94182 6.64494 -3269.13 -4864.96 2.42886e+07 
332 -0.01685 8.86188e-05 2454.84 323.509 5.97011 6.69541 -3369.5 -5014.24 2.49782e+07 
333 -0.01675 8.86275e-05 2454.6 325.065 5.9994 6.74914 -3473.22 -5172.92 2.56975e+07 
335 -0.01655 8.86462e-05 2454.11 328.296 6.06031 6.85623 -3688.12 -5489.85 2.71769e+07 
336 -0.01645 8.86555e-05 2453.83 330.042 6.09319 6.91558 -3805.96 -5666.75 2.79955e+07 
337 -0.01635 8.86642e-05 2453.57 331.725 6.12485 6.97184 -3917.42 -5833.47 2.87646e+07 
338 -0.01625 8.86753e-05 2453.29 333.544 6.15921 7.03336 -4038.91 -6015.22 2.96031e+07 
339 -0.01615 8.86849e-05 2453 335.382 6.19383 7.09516 -4161.39 -6197.9 3.0446e+07 
340 -0.01605 8.8696e-05 2452.71 337.251 6.22913 7.15859 -4285.84 -6385.84 3.13102e+07 
341 -0.01595 8.8707e-05 2452.39 339.272 6.26724 7.22771 -4420.78 -6589.12 3.22359e+07 
342 -0.01585 8.87192e-05 2452.07 341.398 6.30738 7.29861 -4562.41 -6796.94 3.3199e+07 